LAMMPS data file. CGCMM style. atom_style full generated by VMD/TopoTools v1.7 on Fri Dec 07 18:23:35 GMT 2018
 3072 atoms
 0 bonds
 0 angles
 0 dihedrals
 0 impropers
 1 atom types
 0 bond types
 0 angle types
 0 dihedral types
 0 improper types
 0.530500 45.629499  xlo xhi
 -0.019500 45.079499  ylo yhi
 0.960501 46.059500  zlo zhi

# Pair Coeffs
#
# 1  O

 Masses

 1 15.999400 # O

 Atoms # full

1 1 1 0.000000 35.349998 24.370001 5.390000 # O 
2 1 1 0.000000 33.950001 38.330002 20.549999 # O 
3 1 1 0.000000 15.950000 37.570000 44.080002 # O 
4 1 1 0.000000 15.910000 16.510000 18.500000 # O 
5 1 1 0.000000 19.180000 38.980000 19.200001 # O 
6 1 1 0.000000 39.619999 23.730000 29.690001 # O 
7 1 1 0.000000 37.740002 10.030000 4.380000 # O 
8 1 1 0.000000 4.720000 11.460000 20.240000 # O 
9 1 1 0.000000 37.790001 44.110001 11.120000 # O 
10 1 1 0.000000 32.630001 24.730000 25.900000 # O 
11 1 1 0.000000 44.000000 15.810000 31.980000 # O 
12 1 1 0.000000 37.750000 11.900000 12.750000 # O 
13 1 1 0.000000 23.200001 28.850000 4.810000 # O 
14 1 1 0.000000 2.730000 18.350000 17.020000 # O 
15 1 1 0.000000 19.469999 17.230000 40.150002 # O 
16 1 1 0.000000 0.750000 12.680000 40.509998 # O 
17 1 1 0.000000 12.190000 24.120001 10.440000 # O 
18 1 1 0.000000 12.430000 15.080000 41.720001 # O 
19 1 1 0.000000 29.639999 43.610001 36.860001 # O 
20 1 1 0.000000 6.440000 0.640000 13.620000 # O 
21 1 1 0.000000 14.550000 8.560000 44.320000 # O 
22 1 1 0.000000 15.100000 10.580000 37.299999 # O 
23 1 1 0.000000 36.779999 28.860001 4.650000 # O 
24 1 1 0.000000 18.610001 33.270000 24.520000 # O 
25 1 1 0.000000 12.720000 19.360001 43.080002 # O 
26 1 1 0.000000 36.720001 23.139999 27.070000 # O 
27 1 1 0.000000 34.750000 11.060000 30.870001 # O 
28 1 1 0.000000 36.939999 22.740000 36.250000 # O 
29 1 1 0.000000 19.459999 29.680000 37.099998 # O 
30 1 1 0.000000 7.450000 23.180000 45.139999 # O 
31 1 1 0.000000 17.889999 44.860001 21.870001 # O 
32 1 1 0.000000 1.180000 27.700001 29.910000 # O 
33 1 1 0.000000 27.790001 9.080000 34.560001 # O 
34 1 1 0.000000 0.980000 14.510000 38.340000 # O 
35 1 1 0.000000 18.830000 6.040000 1.210000 # O 
36 1 1 0.000000 29.650000 26.809999 21.530001 # O 
37 1 1 0.000000 26.209999 9.370000 2.670000 # O 
38 1 1 0.000000 18.330000 23.780001 37.720001 # O 
39 1 1 0.000000 14.060000 32.990002 37.930000 # O 
40 1 1 0.000000 39.009998 7.770000 31.670000 # O 
41 1 1 0.000000 11.670000 10.240000 11.750000 # O 
42 1 1 0.000000 36.700001 2.730000 20.879999 # O 
43 1 1 0.000000 1.460000 11.050000 6.320000 # O 
44 1 1 0.000000 4.550000 7.450000 13.040000 # O 
45 1 1 0.000000 24.830000 8.850000 32.029999 # O 
46 1 1 0.000000 31.160000 15.170000 20.799999 # O 
47 1 1 0.000000 28.590000 1.080000 4.470000 # O 
48 1 1 0.000000 16.270000 35.150002 1.550000 # O 
49 1 1 0.000000 24.150000 19.930000 5.680000 # O 
50 1 1 0.000000 31.559999 44.720001 11.030000 # O 
51 1 1 0.000000 19.270000 40.090000 3.140000 # O 
52 1 1 0.000000 27.879999 15.810000 44.270000 # O 
53 1 1 0.000000 37.009998 16.010000 36.889999 # O 
54 1 1 0.000000 24.340000 38.759998 30.190001 # O 
55 1 1 0.000000 39.070000 28.350000 7.440000 # O 
56 1 1 0.000000 9.450000 11.450000 10.200000 # O 
57 1 1 0.000000 4.000000 5.350000 1.300000 # O 
58 1 1 0.000000 21.500000 33.340000 24.540001 # O 
59 1 1 0.000000 32.189999 32.740002 23.150000 # O 
60 1 1 0.000000 23.040001 36.860001 34.560001 # O 
61 1 1 0.000000 28.600000 42.080002 21.860001 # O 
62 1 1 0.000000 11.420000 17.379999 44.529999 # O 
63 1 1 0.000000 41.549999 40.770000 5.980000 # O 
64 1 1 0.000000 25.389999 17.150000 40.650002 # O 
65 1 1 0.000000 12.870000 34.200001 40.230000 # O 
66 1 1 0.000000 21.490000 34.570000 45.029999 # O 
67 1 1 0.000000 43.299999 36.740002 7.710000 # O 
68 1 1 0.000000 41.900002 7.160000 1.500000 # O 
69 1 1 0.000000 8.040000 30.030001 27.660000 # O 
70 1 1 0.000000 24.549999 1.130000 45.619999 # O 
71 1 1 0.000000 10.190000 22.379999 24.600000 # O 
72 1 1 0.000000 9.150000 23.740000 10.220000 # O 
73 1 1 0.000000 38.130001 5.110000 41.060001 # O 
74 1 1 0.000000 13.370000 7.370000 1.710000 # O 
75 1 1 0.000000 42.270000 10.270000 44.860001 # O 
76 1 1 0.000000 41.759998 12.210000 5.550000 # O 
77 1 1 0.000000 19.889999 10.700000 35.160000 # O 
78 1 1 0.000000 34.869999 29.920000 14.230000 # O 
79 1 1 0.000000 39.340000 36.540001 44.759998 # O 
80 1 1 0.000000 16.469999 15.150000 6.820000 # O 
81 1 1 0.000000 29.400000 12.450000 12.990000 # O 
82 1 1 0.000000 24.270000 40.240002 43.040001 # O 
83 1 1 0.000000 44.950001 28.620001 22.930000 # O 
84 1 1 0.000000 42.990002 25.030001 31.049999 # O 
85 1 1 0.000000 4.410000 15.910000 6.900000 # O 
86 1 1 0.000000 2.580000 13.000000 16.450001 # O 
87 1 1 0.000000 37.389999 42.070000 15.760000 # O 
88 1 1 0.000000 19.260000 21.680000 27.160000 # O 
89 1 1 0.000000 7.660000 8.560000 17.760000 # O 
90 1 1 0.000000 35.220001 40.599998 16.820000 # O 
91 1 1 0.000000 9.730000 21.480000 40.250000 # O 
92 1 1 0.000000 32.070000 29.480000 33.669998 # O 
93 1 1 0.000000 24.309999 27.990000 11.100000 # O 
94 1 1 0.000000 11.980000 34.740002 5.760000 # O 
95 1 1 0.000000 34.900002 40.820000 19.480000 # O 
96 1 1 0.000000 42.570000 43.980000 40.950001 # O 
97 1 1 0.000000 35.299999 16.690001 40.529999 # O 
98 1 1 0.000000 28.900000 15.250000 28.850000 # O 
99 1 1 0.000000 42.709999 34.439999 29.000000 # O 
100 1 1 0.000000 37.720001 24.920000 6.820000 # O 
101 1 1 0.000000 11.930000 7.430000 15.630000 # O 
102 1 1 0.000000 0.700000 10.750000 17.670000 # O 
103 1 1 0.000000 8.100000 31.770000 5.920000 # O 
104 1 1 0.000000 5.120000 23.580000 1.630000 # O 
105 1 1 0.000000 20.840000 11.750000 11.530000 # O 
106 1 1 0.000000 25.930000 41.430000 21.920000 # O 
107 1 1 0.000000 28.610001 8.470000 43.049999 # O 
108 1 1 0.000000 14.170000 34.150002 9.030000 # O 
109 1 1 0.000000 31.790001 35.349998 22.650000 # O 
110 1 1 0.000000 6.190000 37.209999 8.770000 # O 
111 1 1 0.000000 42.549999 36.810001 19.290001 # O 
112 1 1 0.000000 23.350000 11.860000 17.590000 # O 
113 1 1 0.000000 36.250000 3.430000 28.959999 # O 
114 1 1 0.000000 44.720001 28.670000 44.209999 # O 
115 1 1 0.000000 30.490000 43.290001 5.120000 # O 
116 1 1 0.000000 35.000000 43.430000 14.640000 # O 
117 1 1 0.000000 38.169998 22.379999 1.180000 # O 
118 1 1 0.000000 35.080002 41.160000 44.110001 # O 
119 1 1 0.000000 5.910000 40.880001 2.960000 # O 
120 1 1 0.000000 45.130001 25.889999 21.980000 # O 
121 1 1 0.000000 12.480000 29.540001 35.299999 # O 
122 1 1 0.000000 38.779999 44.660000 35.459999 # O 
123 1 1 0.000000 30.980000 7.960000 12.420000 # O 
124 1 1 0.000000 9.910000 34.820000 11.610000 # O 
125 1 1 0.000000 2.610000 25.240000 43.700001 # O 
126 1 1 0.000000 18.360001 3.510000 11.420000 # O 
127 1 1 0.000000 23.709999 26.240000 35.500000 # O 
128 1 1 0.000000 35.419998 4.260000 25.110001 # O 
129 1 1 0.000000 19.799999 4.970000 35.299999 # O 
130 1 1 0.000000 27.900000 40.230000 17.389999 # O 
131 1 1 0.000000 41.759998 29.700001 4.470000 # O 
132 1 1 0.000000 25.420000 32.349998 30.459999 # O 
133 1 1 0.000000 43.020000 11.400000 2.970000 # O 
134 1 1 0.000000 41.700001 16.299999 29.340000 # O 
135 1 1 0.000000 31.160000 38.369999 5.110000 # O 
136 1 1 0.000000 32.000000 0.140000 23.480000 # O 
137 1 1 0.000000 43.759998 25.000000 39.740002 # O 
138 1 1 0.000000 4.080000 19.610001 27.250000 # O 
139 1 1 0.000000 8.340000 21.620001 17.200001 # O 
140 1 1 0.000000 40.330002 35.099998 5.880000 # O 
141 1 1 0.000000 2.470000 31.260000 32.450001 # O 
142 1 1 0.000000 7.500000 15.730000 6.580000 # O 
143 1 1 0.000000 32.020000 14.240000 31.080000 # O 
144 1 1 0.000000 32.200001 35.509998 41.250000 # O 
145 1 1 0.000000 27.680000 3.390000 30.490000 # O 
146 1 1 0.000000 5.800000 9.620000 4.890000 # O 
147 1 1 0.000000 8.650000 24.370001 2.480000 # O 
148 1 1 0.000000 14.970000 20.070000 35.389999 # O 
149 1 1 0.000000 39.570000 3.600000 24.360001 # O 
150 1 1 0.000000 2.550000 43.580002 36.380001 # O 
151 1 1 0.000000 39.450001 22.980000 37.570000 # O 
152 1 1 0.000000 33.660000 3.210000 45.830002 # O 
153 1 1 0.000000 25.520000 16.520000 45.810001 # O 
154 1 1 0.000000 32.830002 42.450001 23.290001 # O 
155 1 1 0.000000 33.849998 4.790000 40.869999 # O 
156 1 1 0.000000 7.670000 39.570000 4.780000 # O 
157 1 1 0.000000 31.170000 1.630000 35.389999 # O 
158 1 1 0.000000 4.260000 7.420000 42.040001 # O 
159 1 1 0.000000 1.110000 37.200001 18.110001 # O 
160 1 1 0.000000 17.360001 33.480000 16.809999 # O 
161 1 1 0.000000 4.460000 17.330000 38.009998 # O 
162 1 1 0.000000 9.770000 38.470001 3.230000 # O 
163 1 1 0.000000 42.580002 31.150000 16.410000 # O 
164 1 1 0.000000 7.950000 36.290001 40.450001 # O 
165 1 1 0.000000 42.520000 10.050000 32.520000 # O 
166 1 1 0.000000 32.540001 18.549999 19.030001 # O 
167 1 1 0.000000 42.200001 28.480000 2.000000 # O 
168 1 1 0.000000 31.719999 25.150000 40.830002 # O 
169 1 1 0.000000 7.370000 3.710000 22.860001 # O 
170 1 1 0.000000 14.250000 43.419998 12.220000 # O 
171 1 1 0.000000 35.240002 3.960000 4.650000 # O 
172 1 1 0.000000 34.480000 5.430000 28.350000 # O 
173 1 1 0.000000 19.070000 17.270000 26.670000 # O 
174 1 1 0.000000 15.990000 26.790001 0.930000 # O 
175 1 1 0.000000 21.370001 14.550000 33.680000 # O 
176 1 1 0.000000 9.040000 23.629999 33.599998 # O 
177 1 1 0.000000 2.190000 39.639999 35.049999 # O 
178 1 1 0.000000 12.010000 8.630000 40.630001 # O 
179 1 1 0.000000 5.070000 38.840000 34.680000 # O 
180 1 1 0.000000 27.700001 37.630001 17.799999 # O 
181 1 1 0.000000 8.020000 16.139999 37.750000 # O 
182 1 1 0.000000 27.309999 4.340000 24.809999 # O 
183 1 1 0.000000 8.840000 43.560001 21.639999 # O 
184 1 1 0.000000 30.410000 20.090000 8.500000 # O 
185 1 1 0.000000 17.070000 39.560001 27.270000 # O 
186 1 1 0.000000 13.600000 13.250000 23.670000 # O 
187 1 1 0.000000 16.469999 14.770000 15.080000 # O 
188 1 1 0.000000 44.840000 20.190001 25.410000 # O 
189 1 1 0.000000 15.680000 8.930000 15.020000 # O 
190 1 1 0.000000 29.780001 16.840000 3.710000 # O 
191 1 1 0.000000 15.390000 31.820000 22.650000 # O 
192 1 1 0.000000 5.200000 29.180000 45.919998 # O 
193 1 1 0.000000 7.220000 10.550000 14.270000 # O 
194 1 1 0.000000 23.969999 1.670000 3.210000 # O 
195 1 1 0.000000 10.830000 3.430000 5.840000 # O 
196 1 1 0.000000 44.270000 24.110001 42.540001 # O 
197 1 1 0.000000 44.209999 17.709999 3.540000 # O 
198 1 1 0.000000 10.410000 1.130000 12.020000 # O 
199 1 1 0.000000 5.590000 30.230000 43.410000 # O 
200 1 1 0.000000 32.180000 21.820000 24.700001 # O 
201 1 1 0.000000 40.240002 19.780001 18.020000 # O 
202 1 1 0.000000 36.830002 34.410000 23.110001 # O 
203 1 1 0.000000 21.049999 37.099998 19.610001 # O 
204 1 1 0.000000 37.509998 1.240000 6.880000 # O 
205 1 1 0.000000 18.799999 29.610001 17.809999 # O 
206 1 1 0.000000 45.070000 13.760000 23.629999 # O 
207 1 1 0.000000 9.720000 19.549999 16.299999 # O 
208 1 1 0.000000 19.150000 7.200000 26.570000 # O 
209 1 1 0.000000 21.120001 26.110001 1.500000 # O 
210 1 1 0.000000 36.070000 41.389999 2.380000 # O 
211 1 1 0.000000 25.620001 2.630000 22.830000 # O 
212 1 1 0.000000 20.230000 24.879999 36.189999 # O 
213 1 1 0.000000 3.820000 12.700000 33.000000 # O 
214 1 1 0.000000 13.080000 23.840000 22.219999 # O 
215 1 1 0.000000 20.020000 34.130001 16.580000 # O 
216 1 1 0.000000 39.360001 6.120000 21.770000 # O 
217 1 1 0.000000 27.969999 26.360001 36.099998 # O 
218 1 1 0.000000 42.790001 33.189999 6.680000 # O 
219 1 1 0.000000 41.450001 37.070000 1.320000 # O 
220 1 1 0.000000 33.660000 15.000000 7.500000 # O 
221 1 1 0.000000 18.629999 44.759998 11.600000 # O 
222 1 1 0.000000 19.950001 12.090000 20.639999 # O 
223 1 1 0.000000 11.040000 44.790001 3.000000 # O 
224 1 1 0.000000 18.610001 14.740000 4.870000 # O 
225 1 1 0.000000 2.820000 42.220001 34.209999 # O 
226 1 1 0.000000 23.430000 2.660000 41.349998 # O 
227 1 1 0.000000 28.240000 39.040001 6.450000 # O 
228 1 1 0.000000 13.520000 14.870000 17.350000 # O 
229 1 1 0.000000 32.389999 8.920000 1.190000 # O 
230 1 1 0.000000 31.190001 7.930000 32.810001 # O 
231 1 1 0.000000 18.459999 8.320000 23.309999 # O 
232 1 1 0.000000 2.200000 23.129999 14.850000 # O 
233 1 1 0.000000 30.020000 39.660000 26.490000 # O 
234 1 1 0.000000 4.810000 25.920000 45.470001 # O 
235 1 1 0.000000 37.959999 27.980000 13.350000 # O 
236 1 1 0.000000 25.889999 14.600000 19.680000 # O 
237 1 1 0.000000 19.389999 5.910000 32.630001 # O 
238 1 1 0.000000 34.570000 24.770000 10.850000 # O 
239 1 1 0.000000 21.490000 26.240000 40.459999 # O 
240 1 1 0.000000 15.950000 24.430000 19.049999 # O 
241 1 1 0.000000 41.849998 13.490000 44.340000 # O 
242 1 1 0.000000 16.450001 32.130001 34.889999 # O 
243 1 1 0.000000 45.180000 31.400000 43.759998 # O 
244 1 1 0.000000 45.349998 26.040001 8.550000 # O 
245 1 1 0.000000 33.799999 37.490002 7.430000 # O 
246 1 1 0.000000 19.150000 26.500000 4.980000 # O 
247 1 1 0.000000 30.299999 26.120001 26.600000 # O 
248 1 1 0.000000 35.770000 33.180000 37.250000 # O 
249 1 1 0.000000 18.110001 4.390000 24.120001 # O 
250 1 1 0.000000 21.200001 38.150002 13.850000 # O 
251 1 1 0.000000 39.599998 18.709999 10.350000 # O 
252 1 1 0.000000 12.440000 4.890000 8.920000 # O 
253 1 1 0.000000 17.270000 39.299999 11.240000 # O 
254 1 1 0.000000 15.120000 26.889999 12.010000 # O 
255 1 1 0.000000 27.459999 35.950001 8.130000 # O 
256 1 1 0.000000 38.610001 0.720000 20.820000 # O 
257 1 1 0.000000 31.700001 43.200001 35.160000 # O 
258 1 1 0.000000 17.309999 38.919998 30.250000 # O 
259 1 1 0.000000 43.580002 9.580000 11.450000 # O 
260 1 1 0.000000 34.270000 15.420000 11.310000 # O 
261 1 1 0.000000 11.150000 11.760000 26.620001 # O 
262 1 1 0.000000 44.070000 24.959999 24.129999 # O 
263 1 1 0.000000 5.260000 18.900000 29.799999 # O 
264 1 1 0.000000 40.369999 37.509998 33.860001 # O 
265 1 1 0.000000 13.160000 33.660000 20.330000 # O 
266 1 1 0.000000 15.230000 7.870000 29.150000 # O 
267 1 1 0.000000 19.680000 39.680000 6.090000 # O 
268 1 1 0.000000 33.419998 22.500000 11.660000 # O 
269 1 1 0.000000 30.020000 34.910000 19.410000 # O 
270 1 1 0.000000 45.029999 7.310000 1.290000 # O 
271 1 1 0.000000 2.790000 40.110001 15.770000 # O 
272 1 1 0.000000 3.880000 39.540001 11.030000 # O 
273 1 1 0.000000 44.299999 14.460000 29.180000 # O 
274 1 1 0.000000 19.250000 34.860001 8.700000 # O 
275 1 1 0.000000 7.050000 40.759998 13.360000 # O 
276 1 1 0.000000 1.410000 16.950001 31.129999 # O 
277 1 1 0.000000 27.870001 0.660000 30.570000 # O 
278 1 1 0.000000 10.980000 1.990000 33.279999 # O 
279 1 1 0.000000 9.160000 36.520000 14.020000 # O 
280 1 1 0.000000 29.410000 11.440000 17.620001 # O 
281 1 1 0.000000 30.379999 44.630001 42.000000 # O 
282 1 1 0.000000 17.070000 19.889999 29.900000 # O 
283 1 1 0.000000 20.129999 10.210000 15.620000 # O 
284 1 1 0.000000 26.930000 41.759998 10.590000 # O 
285 1 1 0.000000 5.730000 16.959999 33.549999 # O 
286 1 1 0.000000 21.090000 38.529999 43.820000 # O 
287 1 1 0.000000 10.760000 27.820000 2.750000 # O 
288 1 1 0.000000 35.270000 12.720000 4.390000 # O 
289 1 1 0.000000 16.500000 17.080000 9.070000 # O 
290 1 1 0.000000 10.460000 26.910000 15.600000 # O 
291 1 1 0.000000 8.300000 6.190000 22.370001 # O 
292 1 1 0.000000 31.270000 20.860001 35.410000 # O 
293 1 1 0.000000 17.690001 8.680000 40.570000 # O 
294 1 1 0.000000 4.940000 21.510000 14.180000 # O 
295 1 1 0.000000 18.110001 31.170000 23.400000 # O 
296 1 1 0.000000 6.480000 8.910000 25.629999 # O 
297 1 1 0.000000 32.860001 42.520000 20.400000 # O 
298 1 1 0.000000 43.900002 12.800000 37.220001 # O 
299 1 1 0.000000 29.030001 34.540001 35.849998 # O 
300 1 1 0.000000 12.550000 24.400000 4.190000 # O 
301 1 1 0.000000 15.260000 38.209999 41.490002 # O 
302 1 1 0.000000 9.430000 19.000000 8.400000 # O 
303 1 1 0.000000 13.790000 27.150000 25.690001 # O 
304 1 1 0.000000 19.490000 33.619999 4.590000 # O 
305 1 1 0.000000 29.139999 39.650002 42.970001 # O 
306 1 1 0.000000 1.060000 36.270000 38.490002 # O 
307 1 1 0.000000 9.140000 13.450000 26.600000 # O 
308 1 1 0.000000 39.820000 27.480000 11.380000 # O 
309 1 1 0.000000 4.650000 6.950000 33.919998 # O 
310 1 1 0.000000 17.240000 3.080000 1.200000 # O 
311 1 1 0.000000 4.050000 4.530000 17.440001 # O 
312 1 1 0.000000 16.910000 28.600000 3.800000 # O 
313 1 1 0.000000 19.850000 36.139999 3.640000 # O 
314 1 1 0.000000 37.040001 37.480000 6.020000 # O 
315 1 1 0.000000 34.290001 10.720000 9.970000 # O 
316 1 1 0.000000 33.709999 30.879999 8.280000 # O 
317 1 1 0.000000 33.580002 42.180000 38.520000 # O 
318 1 1 0.000000 28.530001 33.139999 5.380000 # O 
319 1 1 0.000000 19.129999 28.389999 25.309999 # O 
320 1 1 0.000000 4.020000 0.760000 36.400002 # O 
321 1 1 0.000000 40.900002 36.049999 40.029999 # O 
322 1 1 0.000000 37.060001 7.890000 37.500000 # O 
323 1 1 0.000000 25.650000 37.700001 6.600000 # O 
324 1 1 0.000000 17.420000 17.200001 13.990000 # O 
325 1 1 0.000000 27.639999 21.010000 19.950001 # O 
326 1 1 0.000000 44.750000 27.370001 19.170000 # O 
327 1 1 0.000000 28.600000 37.970001 24.719999 # O 
328 1 1 0.000000 38.740002 4.020000 2.130000 # O 
329 1 1 0.000000 19.110001 32.430000 44.029999 # O 
330 1 1 0.000000 11.280000 25.110001 27.809999 # O 
331 1 1 0.000000 17.959999 2.150000 26.290001 # O 
332 1 1 0.000000 42.529999 0.710000 26.110001 # O 
333 1 1 0.000000 6.620000 27.980000 20.190001 # O 
334 1 1 0.000000 28.690001 4.730000 21.170000 # O 
335 1 1 0.000000 3.620000 19.700001 4.000000 # O 
336 1 1 0.000000 11.200000 41.509998 21.400000 # O 
337 1 1 0.000000 7.650000 27.299999 1.440000 # O 
338 1 1 0.000000 24.480000 -0.040000 22.730000 # O 
339 1 1 0.000000 9.220000 31.030001 25.379999 # O 
340 1 1 0.000000 39.610001 16.650000 42.750000 # O 
341 1 1 0.000000 27.040001 13.150000 44.520000 # O 
342 1 1 0.000000 14.530000 2.780000 28.480000 # O 
343 1 1 0.000000 19.780001 10.890000 23.290001 # O 
344 1 1 0.000000 13.440000 6.140000 6.720000 # O 
345 1 1 0.000000 25.100000 13.790000 3.790000 # O 
346 1 1 0.000000 41.049999 41.889999 1.880000 # O 
347 1 1 0.000000 11.080000 22.260000 34.799999 # O 
348 1 1 0.000000 22.309999 14.710000 28.000000 # O 
349 1 1 0.000000 22.330000 37.790001 38.959999 # O 
350 1 1 0.000000 23.940001 33.759998 32.730000 # O 
351 1 1 0.000000 19.670000 21.040001 41.810001 # O 
352 1 1 0.000000 44.860001 34.680000 36.639999 # O 
353 1 1 0.000000 41.290001 40.000000 17.400000 # O 
354 1 1 0.000000 10.170000 13.870000 37.130001 # O 
355 1 1 0.000000 42.910000 3.670000 16.600000 # O 
356 1 1 0.000000 42.869999 35.740002 32.630001 # O 
357 1 1 0.000000 33.180000 21.110001 31.000000 # O 
358 1 1 0.000000 14.120000 44.259998 20.480000 # O 
359 1 1 0.000000 6.170000 39.340000 29.139999 # O 
360 1 1 0.000000 10.090000 43.139999 33.610001 # O 
361 1 1 0.000000 29.219999 20.170000 33.750000 # O 
362 1 1 0.000000 42.689999 20.340000 12.290000 # O 
363 1 1 0.000000 23.010000 31.450001 18.200001 # O 
364 1 1 0.000000 34.639999 13.930000 19.770000 # O 
365 1 1 0.000000 2.820000 27.129999 16.389999 # O 
366 1 1 0.000000 20.580000 6.980000 15.810000 # O 
367 1 1 0.000000 18.000000 2.540000 34.439999 # O 
368 1 1 0.000000 3.220000 44.660000 10.930000 # O 
369 1 1 0.000000 36.299999 11.990000 21.820000 # O 
370 1 1 0.000000 9.190000 14.190000 29.400000 # O 
371 1 1 0.000000 44.939999 39.639999 36.000000 # O 
372 1 1 0.000000 7.480000 19.379999 25.270000 # O 
373 1 1 0.000000 43.500000 21.580000 5.600000 # O 
374 1 1 0.000000 21.010000 18.940001 24.629999 # O 
375 1 1 0.000000 29.860001 17.940001 17.629999 # O 
376 1 1 0.000000 24.370001 16.370001 27.620001 # O 
377 1 1 0.000000 42.369999 20.680000 27.900000 # O 
378 1 1 0.000000 8.490000 26.660000 24.000000 # O 
379 1 1 0.000000 23.500000 22.840000 41.349998 # O 
380 1 1 0.000000 28.770000 14.460000 38.230000 # O 
381 1 1 0.000000 36.230000 34.490002 6.270000 # O 
382 1 1 0.000000 26.320000 29.879999 31.260000 # O 
383 1 1 0.000000 19.990000 3.880000 18.219999 # O 
384 1 1 0.000000 43.200001 12.710000 26.980000 # O 
385 1 1 0.000000 15.500000 22.420000 10.890000 # O 
386 1 1 0.000000 11.020000 19.299999 37.990002 # O 
387 1 1 0.000000 41.389999 2.820000 1.660000 # O 
388 1 1 0.000000 38.070000 29.770000 19.969999 # O 
389 1 1 0.000000 42.610001 4.230000 33.180000 # O 
390 1 1 0.000000 44.730000 7.920000 8.930000 # O 
391 1 1 0.000000 36.730000 3.270000 10.560000 # O 
392 1 1 0.000000 19.469999 17.180000 43.080002 # O 
393 1 1 0.000000 21.200001 17.740000 28.440001 # O 
394 1 1 0.000000 23.080000 27.530001 7.080000 # O 
395 1 1 0.000000 27.620001 43.669998 32.349998 # O 
396 1 1 0.000000 14.240000 34.090000 13.730000 # O 
397 1 1 0.000000 23.450001 15.280000 19.150000 # O 
398 1 1 0.000000 30.209999 37.139999 17.620001 # O 
399 1 1 0.000000 24.719999 37.770000 42.009998 # O 
400 1 1 0.000000 24.740000 10.380000 12.760000 # O 
401 1 1 0.000000 2.320000 0.590000 44.320000 # O 
402 1 1 0.000000 13.710000 26.160000 18.209999 # O 
403 1 1 0.000000 34.820000 39.970001 35.549999 # O 
404 1 1 0.000000 14.770000 28.830000 38.029999 # O 
405 1 1 0.000000 29.760000 8.340000 14.970000 # O 
406 1 1 0.000000 2.520000 10.680000 40.540001 # O 
407 1 1 0.000000 41.750000 42.160000 27.660000 # O 
408 1 1 0.000000 28.250000 35.090000 32.840000 # O 
409 1 1 0.000000 25.910000 25.610001 32.070000 # O 
410 1 1 0.000000 40.450001 4.120000 44.110001 # O 
411 1 1 0.000000 6.440000 33.099998 24.070000 # O 
412 1 1 0.000000 39.240002 37.200001 4.250000 # O 
413 1 1 0.000000 21.010000 0.400000 10.360000 # O 
414 1 1 0.000000 12.520000 44.209999 17.549999 # O 
415 1 1 0.000000 10.860000 21.040001 43.830002 # O 
416 1 1 0.000000 43.570000 23.160000 32.840000 # O 
417 1 1 0.000000 27.790001 32.330002 33.230000 # O 
418 1 1 0.000000 26.049999 20.340000 41.900002 # O 
419 1 1 0.000000 22.490000 33.610001 37.990002 # O 
420 1 1 0.000000 18.910000 8.650000 32.750000 # O 
421 1 1 0.000000 3.640000 11.130000 36.580002 # O 
422 1 1 0.000000 15.860000 44.099998 45.970001 # O 
423 1 1 0.000000 31.990000 5.000000 29.379999 # O 
424 1 1 0.000000 9.990000 37.189999 45.490002 # O 
425 1 1 0.000000 40.799999 31.129999 9.940000 # O 
426 1 1 0.000000 29.070000 29.809999 28.510000 # O 
427 1 1 0.000000 44.270000 31.950001 38.720001 # O 
428 1 1 0.000000 23.830000 41.130001 7.790000 # O 
429 1 1 0.000000 9.500000 13.880000 16.500000 # O 
430 1 1 0.000000 3.840000 17.540001 35.340000 # O 
431 1 1 0.000000 11.260000 9.810000 14.680000 # O 
432 1 1 0.000000 16.910000 12.800000 11.130000 # O 
433 1 1 0.000000 14.660000 0.810000 16.600000 # O 
434 1 1 0.000000 34.990002 9.170000 39.099998 # O 
435 1 1 0.000000 21.230000 37.380001 28.959999 # O 
436 1 1 0.000000 28.570000 42.660000 7.230000 # O 
437 1 1 0.000000 28.559999 29.580000 37.340000 # O 
438 1 1 0.000000 16.440001 43.090000 10.360000 # O 
439 1 1 0.000000 44.860001 18.580000 6.560000 # O 
440 1 1 0.000000 14.000000 39.299999 15.110000 # O 
441 1 1 0.000000 33.990002 37.330002 42.490002 # O 
442 1 1 0.000000 14.110000 39.369999 45.520000 # O 
443 1 1 0.000000 26.250000 11.390000 32.880001 # O 
444 1 1 0.000000 37.720001 36.320000 12.090000 # O 
445 1 1 0.000000 10.510000 12.990000 20.030001 # O 
446 1 1 0.000000 18.340000 30.520000 2.130000 # O 
447 1 1 0.000000 35.340000 9.730000 44.990002 # O 
448 1 1 0.000000 0.610000 28.540001 26.070000 # O 
449 1 1 0.000000 11.620000 21.480000 30.580000 # O 
450 1 1 0.000000 39.099998 43.639999 8.290000 # O 
451 1 1 0.000000 29.549999 34.680000 7.180000 # O 
452 1 1 0.000000 8.310000 22.309999 20.200001 # O 
453 1 1 0.000000 28.110001 4.690000 32.910000 # O 
454 1 1 0.000000 10.070000 4.620000 41.299999 # O 
455 1 1 0.000000 11.890000 15.340000 9.830000 # O 
456 1 1 0.000000 11.960000 15.450000 23.020000 # O 
457 1 1 0.000000 36.790001 2.910000 43.639999 # O 
458 1 1 0.000000 26.620001 3.910000 14.870000 # O 
459 1 1 0.000000 35.939999 19.500000 25.690001 # O 
460 1 1 0.000000 42.250000 12.530000 32.490002 # O 
461 1 1 0.000000 13.800000 27.959999 30.360001 # O 
462 1 1 0.000000 36.410000 42.880001 41.820000 # O 
463 1 1 0.000000 40.590000 31.040001 24.139999 # O 
464 1 1 0.000000 18.020000 11.650000 18.540001 # O 
465 1 1 0.000000 16.010000 38.200001 20.049999 # O 
466 1 1 0.000000 14.810000 5.990000 38.419998 # O 
467 1 1 0.000000 30.340000 26.530001 6.650000 # O 
468 1 1 0.000000 1.930000 33.880001 27.129999 # O 
469 1 1 0.000000 32.070000 21.410000 43.419998 # O 
470 1 1 0.000000 38.959999 37.400002 9.410000 # O 
471 1 1 0.000000 25.360001 44.060001 4.520000 # O 
472 1 1 0.000000 23.510000 30.219999 45.130001 # O 
473 1 1 0.000000 30.450001 4.350000 5.060000 # O 
474 1 1 0.000000 18.580000 23.200001 16.200001 # O 
475 1 1 0.000000 38.689999 34.009998 10.930000 # O 
476 1 1 0.000000 20.730000 37.389999 36.459999 # O 
477 1 1 0.000000 28.750000 23.230000 22.940001 # O 
478 1 1 0.000000 2.640000 12.070000 3.680000 # O 
479 1 1 0.000000 13.600000 36.779999 40.130001 # O 
480 1 1 0.000000 30.170000 14.520000 7.820000 # O 
481 1 1 0.000000 2.100000 35.860001 33.070000 # O 
482 1 1 0.000000 22.240000 14.430000 17.010000 # O 
483 1 1 0.000000 23.410000 37.459999 4.440000 # O 
484 1 1 0.000000 41.790001 6.100000 20.670000 # O 
485 1 1 0.000000 27.139999 18.570000 11.690000 # O 
486 1 1 0.000000 1.860000 21.000000 18.219999 # O 
487 1 1 0.000000 3.840000 40.040001 1.360000 # O 
488 1 1 0.000000 1.430000 11.250000 45.880001 # O 
489 1 1 0.000000 22.799999 34.150002 13.060000 # O 
490 1 1 0.000000 5.550000 10.020000 12.370000 # O 
491 1 1 0.000000 8.290000 2.810000 37.730000 # O 
492 1 1 0.000000 17.549999 25.459999 29.690001 # O 
493 1 1 0.000000 32.849998 4.830000 15.140000 # O 
494 1 1 0.000000 36.900002 32.540001 45.709999 # O 
495 1 1 0.000000 3.520000 42.470001 15.100000 # O 
496 1 1 0.000000 33.799999 33.450001 6.810000 # O 
497 1 1 0.000000 5.500000 3.510000 9.700000 # O 
498 1 1 0.000000 38.549999 16.469999 10.860000 # O 
499 1 1 0.000000 17.469999 44.060001 18.370001 # O 
500 1 1 0.000000 19.690001 11.950000 6.610000 # O 
501 1 1 0.000000 15.460000 18.670000 21.129999 # O 
502 1 1 0.000000 15.840000 35.180000 36.980000 # O 
503 1 1 0.000000 30.549999 10.850000 19.930000 # O 
504 1 1 0.000000 28.290001 16.370001 33.320000 # O 
505 1 1 0.000000 16.120001 30.180000 6.550000 # O 
506 1 1 0.000000 16.430000 39.869999 6.770000 # O 
507 1 1 0.000000 44.529999 20.760000 8.230000 # O 
508 1 1 0.000000 3.260000 5.970000 8.350000 # O 
509 1 1 0.000000 24.709999 27.350000 39.220001 # O 
510 1 1 0.000000 19.469999 27.389999 15.950000 # O 
511 1 1 0.000000 15.890000 31.209999 38.950001 # O 
512 1 1 0.000000 24.809999 0.270000 8.040000 # O 
513 1 1 0.000000 40.160000 28.200001 15.900000 # O 
514 1 1 0.000000 31.430000 4.760000 19.260000 # O 
515 1 1 0.000000 5.280000 3.400000 5.070000 # O 
516 1 1 0.000000 38.410000 41.599998 19.469999 # O 
517 1 1 0.000000 41.000000 10.030000 35.380001 # O 
518 1 1 0.000000 1.560000 8.340000 4.810000 # O 
519 1 1 0.000000 22.660000 2.630000 26.980000 # O 
520 1 1 0.000000 17.010000 20.719999 19.530001 # O 
521 1 1 0.000000 12.840000 29.730000 40.650002 # O 
522 1 1 0.000000 14.980000 38.919998 24.469999 # O 
523 1 1 0.000000 4.720000 27.120001 22.719999 # O 
524 1 1 0.000000 25.480000 35.770000 24.820000 # O 
525 1 1 0.000000 33.549999 33.980000 15.320000 # O 
526 1 1 0.000000 0.520000 2.990000 19.959999 # O 
527 1 1 0.000000 11.270000 39.180000 38.169998 # O 
528 1 1 0.000000 44.509998 9.370000 25.410000 # O 
529 1 1 0.000000 33.529999 36.270000 37.189999 # O 
530 1 1 0.000000 22.840000 23.350000 7.360000 # O 
531 1 1 0.000000 11.520000 4.030000 1.200000 # O 
532 1 1 0.000000 35.860001 4.580000 12.710000 # O 
533 1 1 0.000000 44.810001 35.919998 30.180000 # O 
534 1 1 0.000000 31.209999 41.770000 39.849998 # O 
535 1 1 0.000000 4.040000 36.000000 23.350000 # O 
536 1 1 0.000000 7.640000 20.629999 9.540000 # O 
537 1 1 0.000000 2.590000 17.969999 13.350000 # O 
538 1 1 0.000000 22.290001 31.260000 25.299999 # O 
539 1 1 0.000000 43.580002 14.010000 1.280000 # O 
540 1 1 0.000000 9.960000 42.209999 9.650000 # O 
541 1 1 0.000000 6.710000 18.660000 41.119999 # O 
542 1 1 0.000000 35.820000 28.760000 11.770000 # O 
543 1 1 0.000000 36.619999 25.549999 13.470000 # O 
544 1 1 0.000000 43.680000 27.760000 37.520000 # O 
545 1 1 0.000000 11.370000 0.690000 39.799999 # O 
546 1 1 0.000000 43.110001 7.260000 22.600000 # O 
547 1 1 0.000000 7.170000 27.690001 8.100000 # O 
548 1 1 0.000000 6.930000 11.580000 27.809999 # O 
549 1 1 0.000000 35.799999 12.990000 9.840000 # O 
550 1 1 0.000000 39.490002 19.910000 36.320000 # O 
551 1 1 0.000000 39.349998 22.290001 18.049999 # O 
552 1 1 0.000000 5.550000 22.760000 37.650002 # O 
553 1 1 0.000000 39.599998 25.940001 17.379999 # O 
554 1 1 0.000000 43.240002 21.230000 43.570000 # O 
555 1 1 0.000000 9.700000 1.410000 9.330000 # O 
556 1 1 0.000000 31.330000 37.130001 15.150000 # O 
557 1 1 0.000000 44.520000 24.320000 2.000000 # O 
558 1 1 0.000000 1.050000 23.480000 32.090000 # O 
559 1 1 0.000000 8.060000 40.650002 42.430000 # O 
560 1 1 0.000000 34.150002 7.950000 22.900000 # O 
561 1 1 0.000000 29.740000 43.049999 24.270000 # O 
562 1 1 0.000000 25.950001 18.450001 43.880001 # O 
563 1 1 0.000000 22.180000 0.430000 15.210000 # O 
564 1 1 0.000000 7.720000 13.320000 14.350000 # O 
565 1 1 0.000000 43.349998 40.349998 15.840000 # O 
566 1 1 0.000000 7.340000 20.379999 30.750000 # O 
567 1 1 0.000000 27.740000 4.740000 42.430000 # O 
568 1 1 0.000000 13.470000 12.240000 16.590000 # O 
569 1 1 0.000000 4.840000 14.670000 40.799999 # O 
570 1 1 0.000000 7.410000 30.670000 2.460000 # O 
571 1 1 0.000000 16.969999 27.910000 23.549999 # O 
572 1 1 0.000000 30.540001 15.450000 25.030001 # O 
573 1 1 0.000000 33.080002 37.840000 22.969999 # O 
574 1 1 0.000000 37.459999 26.830000 9.410000 # O 
575 1 1 0.000000 1.030000 29.200001 12.680000 # O 
576 1 1 0.000000 9.450000 5.610000 27.770000 # O 
577 1 1 0.000000 35.529999 20.980000 19.480000 # O 
578 1 1 0.000000 5.560000 41.299999 17.480000 # O 