LAMMPS data file. CGCMM style. atom_style full generated by VMD/TopoTools v1.7 on Thu Sep 27 23:48:50 BST 2018
 9216 atoms
 6144 bonds
 3072 angles
 0 dihedrals
 0 impropers
 2 atom types
 1 bond types
 1 angle types
 0 dihedral types
 0 improper types
 0.417001 46.183000  xlo xhi
 -0.482999 45.283000  ylo yhi
 -191.025002 137.805000  zlo zhi

# Pair Coeffs
#
# 1  H
# 2  O

# Bond Coeffs
#
# 1  

# Angle Coeffs
#
# 1  H-O-H

 Masses

 1 1.007940 # H
 2 15.999400 # O

 Atoms # full

1 1 2 0.000000 15.700000 28.530001 13.470000 # O 
2 1 1 0.000000 16.139999 28.590000 14.320000 # H 
3 1 1 0.000000 16.410000 28.430000 12.840000 # H 
4 1 2 0.000000 14.770000 42.919998 28.950001 # O 
5 1 1 0.000000 15.260000 43.730000 29.040001 # H 
6 1 1 0.000000 15.050000 42.369999 29.680000 # H 
7 1 2 0.000000 6.270000 29.559999 27.580000 # O 
8 1 1 0.000000 6.140000 30.139999 28.330000 # H 
9 1 1 0.000000 5.620000 29.860001 26.940001 # H 
10 1 2 0.000000 14.200000 22.719999 7.180000 # O 
11 1 1 0.000000 14.700000 22.940001 7.970000 # H 
12 1 1 0.000000 14.840000 22.350000 6.580000 # H 
13 1 2 0.000000 25.850000 26.580000 41.810001 # O 
14 1 1 0.000000 25.040001 26.540001 42.320000 # H 
15 1 1 0.000000 26.000000 27.520000 41.669998 # H 
16 1 2 0.000000 42.889999 6.270000 14.490000 # O 
17 1 1 0.000000 43.759998 6.620000 14.320000 # H 
18 1 1 0.000000 42.880001 5.420000 14.040000 # H 
19 1 2 0.000000 25.770000 38.689999 42.860001 # O 
20 1 1 0.000000 25.240000 37.970001 42.509998 # H 
21 1 1 0.000000 26.510000 38.259998 43.279999 # H 
22 1 2 0.000000 35.480000 33.799999 8.910000 # O 
23 1 1 0.000000 35.950001 34.630001 9.000000 # H 
24 1 1 0.000000 34.759998 34.000000 8.320000 # H 
25 1 2 0.000000 14.510000 13.450000 39.049999 # O 
26 1 1 0.000000 13.820000 13.790000 39.619999 # H 
27 1 1 0.000000 14.050000 13.120000 38.279999 # H 
28 1 2 0.000000 30.059999 37.500000 17.530001 # O 
29 1 1 0.000000 29.809999 37.009998 16.760000 # H 
30 1 1 0.000000 29.350000 38.130001 17.660000 # H 
31 1 2 0.000000 24.129999 17.150000 8.690000 # O 
32 1 1 0.000000 25.010000 17.410000 8.430000 # H 
33 1 1 0.000000 23.820000 17.870001 9.240000 # H 
34 1 2 0.000000 25.049999 12.760000 7.170000 # O 
35 1 1 0.000000 25.320000 11.890000 6.860000 # H 
36 1 1 0.000000 25.290001 13.350000 6.450000 # H 
37 1 2 0.000000 41.680000 29.900000 40.090000 # O 
38 1 1 0.000000 41.790001 29.070000 40.560001 # H 
39 1 1 0.000000 40.740002 29.969999 39.950001 # H 
40 1 2 0.000000 18.770000 12.940000 17.010000 # O 
41 1 1 0.000000 19.700001 13.090000 16.860001 # H 
42 1 1 0.000000 18.520000 12.300000 16.340000 # H 
43 1 2 0.000000 8.020000 7.230000 46.000000 # O 
44 1 1 0.000000 7.090000 7.390000 45.840000 # H 
45 1 1 0.000000 8.460000 7.550000 45.209999 # H 
46 1 2 0.000000 10.740000 35.919998 0.210000 # O 
47 1 1 0.000000 10.290000 36.340000 0.950000 # H 
48 1 1 0.000000 10.070000 35.360001 -0.190000 # H 
49 1 2 0.000000 9.120000 37.939999 30.330000 # O 
50 1 1 0.000000 8.880000 38.560001 31.020000 # H 
51 1 1 0.000000 9.740000 37.340000 30.740000 # H 
52 1 2 0.000000 20.360001 10.880000 41.279999 # O 
53 1 1 0.000000 19.959999 11.670000 40.910000 # H 
54 1 1 0.000000 21.299999 11.070000 41.279999 # H 
55 1 2 0.000000 23.590000 34.669998 17.090000 # O 
56 1 1 0.000000 22.969999 34.990002 17.740000 # H 
57 1 1 0.000000 23.990000 33.900002 17.500000 # H 
58 1 2 0.000000 19.629999 10.800000 44.000000 # O 
59 1 1 0.000000 19.670000 10.840000 43.040001 # H 
60 1 1 0.000000 18.730000 11.040000 44.209999 # H 
61 1 2 0.000000 6.250000 18.780001 5.950000 # O 
62 1 1 0.000000 6.800000 18.070000 6.280000 # H 
63 1 1 0.000000 6.430000 19.520000 6.540000 # H 
64 1 2 0.000000 23.809999 41.930000 41.070000 # O 
65 1 1 0.000000 23.780001 42.599998 41.750000 # H 
66 1 1 0.000000 24.730000 41.650002 41.049999 # H 
67 1 2 0.000000 40.790001 35.790001 46.549999 # O 
68 1 1 0.000000 41.369999 36.139999 47.220001 # H 
69 1 1 0.000000 39.910000 35.939999 46.880001 # H 
70 1 2 0.000000 40.590000 15.660000 23.620001 # O 
71 1 1 0.000000 41.110001 15.880000 22.850000 # H 
72 1 1 0.000000 40.230000 14.790000 23.440001 # H 
73 1 2 0.000000 24.150000 34.020000 38.110001 # O 
74 1 1 0.000000 25.100000 33.939999 38.200001 # H 
75 1 1 0.000000 23.910000 33.400002 37.430000 # H 
76 1 2 0.000000 29.209999 39.590000 22.170000 # O 
77 1 1 0.000000 29.280001 39.529999 23.120001 # H 
78 1 1 0.000000 29.940001 40.139999 21.900000 # H 
79 1 2 0.000000 12.310000 12.710000 32.279999 # O 
80 1 1 0.000000 11.860000 13.390000 32.779999 # H 
81 1 1 0.000000 12.790000 13.180000 31.600000 # H 
82 1 2 0.000000 36.340000 7.060000 35.720001 # O 
83 1 1 0.000000 36.279999 7.940000 35.349998 # H 
84 1 1 0.000000 35.639999 7.030000 36.380001 # H 
85 1 2 0.000000 37.580002 32.150002 8.370000 # O 
86 1 1 0.000000 36.820000 32.720001 8.480000 # H 
87 1 1 0.000000 37.299999 31.510000 7.710000 # H 
88 1 2 0.000000 1.420000 27.639999 18.170000 # O 
89 1 1 0.000000 1.480000 28.309999 18.850000 # H 
90 1 1 0.000000 2.290000 27.240000 18.150000 # H 
91 1 2 0.000000 12.430000 13.640000 6.100000 # O 
92 1 1 0.000000 11.740000 13.760000 5.460000 # H 
93 1 1 0.000000 13.230000 13.590000 5.580000 # H 
94 1 2 0.000000 35.099998 8.920000 16.280001 # O 
95 1 1 0.000000 35.560001 8.140000 16.580000 # H 
96 1 1 0.000000 35.049999 9.490000 17.049999 # H 
97 1 2 0.000000 5.320000 7.150000 45.279999 # O 
98 1 1 0.000000 4.730000 7.880000 45.110001 # H 
99 1 1 0.000000 5.470000 6.760000 44.419998 # H 
100 1 2 0.000000 1.920000 29.750000 25.170000 # O 
101 1 1 0.000000 1.830000 28.910000 25.610001 # H 
102 1 1 0.000000 2.780000 30.070000 25.430000 # H 
103 1 2 0.000000 26.490000 1.510000 24.730000 # O 
104 1 1 0.000000 26.219999 0.640000 24.459999 # H 
105 1 1 0.000000 25.790001 1.810000 25.309999 # H 
106 1 2 0.000000 10.360000 10.980000 34.119999 # O 
107 1 1 0.000000 10.610000 11.640000 33.470001 # H 
108 1 1 0.000000 11.130000 10.410000 34.180000 # H 
109 1 2 0.000000 24.139999 30.040001 12.140000 # O 
110 1 1 0.000000 24.309999 30.490000 12.960000 # H 
111 1 1 0.000000 24.430000 30.650000 11.460000 # H 
112 1 2 0.000000 19.379999 32.639999 39.790001 # O 
113 1 1 0.000000 19.290001 32.490002 40.730000 # H 
114 1 1 0.000000 20.299999 32.880001 39.669998 # H 
115 1 2 0.000000 6.170000 31.440001 13.100000 # O 
116 1 1 0.000000 6.590000 30.780001 12.550000 # H 
117 1 1 0.000000 5.640000 31.959999 12.500000 # H 
118 1 2 0.000000 1.600000 10.390000 20.910000 # O 
119 1 1 0.000000 0.900000 10.990000 21.160000 # H 
120 1 1 0.000000 1.160000 9.560000 20.719999 # H 
121 1 2 0.000000 32.049999 44.090000 10.890000 # O 
122 1 1 0.000000 32.490002 44.020000 11.740000 # H 
123 1 1 0.000000 32.730000 44.389999 10.290000 # H 
124 1 2 0.000000 20.760000 12.740000 21.430000 # O 
125 1 1 0.000000 20.180000 12.490000 20.709999 # H 
126 1 1 0.000000 21.600000 12.330000 21.219999 # H 
127 1 2 0.000000 7.260000 12.790000 7.850000 # O 
128 1 1 0.000000 8.140000 12.800000 8.230000 # H 
129 1 1 0.000000 6.880000 13.620000 8.110000 # H 
130 1 2 0.000000 3.250000 36.820000 33.599998 # O 
131 1 1 0.000000 3.670000 35.959999 33.619999 # H 
132 1 1 0.000000 2.790000 36.880001 34.439999 # H 
133 1 2 0.000000 35.189999 39.340000 14.420000 # O 
134 1 1 0.000000 35.070000 38.419998 14.170000 # H 
135 1 1 0.000000 34.540001 39.810001 13.900000 # H 
136 1 2 0.000000 11.060000 34.389999 9.570000 # O 
137 1 1 0.000000 10.280000 34.230000 10.090000 # H 
138 1 1 0.000000 11.020000 35.320000 9.350000 # H 
139 1 2 0.000000 37.009998 38.590000 7.360000 # O 
140 1 1 0.000000 36.580002 38.200001 6.600000 # H 
141 1 1 0.000000 37.950001 38.480000 7.180000 # H 
142 1 2 0.000000 14.440000 19.770000 36.189999 # O 
143 1 1 0.000000 15.270000 19.410000 35.889999 # H 
144 1 1 0.000000 14.600000 20.000000 37.110001 # H 
145 1 2 0.000000 7.290000 10.650000 34.310001 # O 
146 1 1 0.000000 7.220000 9.720000 34.080002 # H 
147 1 1 0.000000 8.190000 10.880000 34.090000 # H 
148 1 2 0.000000 33.220001 28.719999 17.820000 # O 
149 1 1 0.000000 34.000000 29.280001 17.799999 # H 
150 1 1 0.000000 32.779999 28.969999 18.639999 # H 
151 1 2 0.000000 28.580000 17.350000 31.180000 # O 
152 1 1 0.000000 27.940001 16.959999 30.580000 # H 
153 1 1 0.000000 28.090000 17.490000 31.990000 # H 
154 1 2 0.000000 13.940000 14.590000 42.590000 # O 
155 1 1 0.000000 14.720000 14.060000 42.720001 # H 
156 1 1 0.000000 14.270000 15.460000 42.340000 # H 
157 1 2 0.000000 18.030001 -0.200000 11.470000 # O 
158 1 1 0.000000 17.469999 -0.866000 11.850000 # H 
159 1 1 0.000000 17.500000 0.600000 11.470000 # H 
160 1 2 0.000000 17.059999 10.750000 28.510000 # O 
161 1 1 0.000000 16.260000 11.270000 28.440001 # H 
162 1 1 0.000000 17.740000 11.390000 28.700001 # H 
163 1 2 0.000000 11.610000 33.369999 7.130000 # O 
164 1 1 0.000000 10.720000 33.340000 6.780000 # H 
165 1 1 0.000000 11.510000 33.650002 8.040000 # H 
166 1 2 0.000000 4.990000 44.700001 22.980000 # O 
167 1 1 0.000000 4.370000 44.750000 22.250000 # H 
168 1 1 0.000000 4.450000 44.490002 23.740000 # H 
169 1 2 0.000000 33.389999 9.540000 38.470001 # O 
170 1 1 0.000000 33.360001 10.340000 37.930000 # H 
171 1 1 0.000000 32.480000 9.260000 38.540001 # H 
172 1 2 0.000000 32.529999 18.260000 33.130001 # O 
173 1 1 0.000000 33.380001 17.840000 33.169998 # H 
174 1 1 0.000000 31.980000 17.670000 32.610001 # H 
175 1 2 0.000000 21.940001 33.700001 25.090000 # O 
176 1 1 0.000000 21.959999 34.529999 25.570000 # H 
177 1 1 0.000000 22.559999 33.139999 25.559999 # H 
178 1 2 0.000000 20.200001 37.869999 26.809999 # O 
179 1 1 0.000000 19.809999 37.939999 25.940001 # H 
180 1 1 0.000000 19.459999 37.840000 27.410000 # H 
181 1 2 0.000000 37.349998 1.150000 30.059999 # O 
182 1 1 0.000000 37.209999 1.060000 31.000000 # H 
183 1 1 0.000000 37.000000 0.340000 29.690001 # H 
184 1 2 0.000000 5.690000 25.160000 19.170000 # O 
185 1 1 0.000000 5.220000 25.760000 18.580000 # H 
186 1 1 0.000000 6.120000 24.549999 18.580000 # H 
187 1 2 0.000000 15.880000 14.280000 34.110001 # O 
188 1 1 0.000000 15.530000 13.410000 34.299999 # H 
189 1 1 0.000000 16.330000 14.170000 33.270000 # H 
190 1 2 0.000000 28.139999 2.060000 20.730000 # O 
191 1 1 0.000000 28.180000 2.380000 21.620001 # H 
192 1 1 0.000000 28.709999 1.290000 20.719999 # H 
193 1 2 0.000000 46.316002 33.580002 11.370000 # O 
194 1 1 0.000000 45.779999 34.320000 11.650000 # H 
195 1 1 0.000000 47.116001 33.650002 11.890000 # H 
196 1 2 0.000000 3.880000 5.250000 18.709999 # O 
197 1 1 0.000000 3.120000 5.000000 18.180000 # H 
198 1 1 0.000000 4.430000 5.760000 18.110001 # H 
199 1 2 0.000000 13.350000 39.049999 3.280000 # O 
200 1 1 0.000000 13.530000 38.790001 4.180000 # H 
201 1 1 0.000000 13.010000 38.250000 2.870000 # H 
202 1 2 0.000000 37.660000 5.620000 2.680000 # O 
203 1 1 0.000000 38.180000 5.060000 2.100000 # H 
204 1 1 0.000000 38.290001 6.240000 3.050000 # H 
205 1 2 0.000000 39.930000 17.299999 44.610001 # O 
206 1 1 0.000000 39.299999 18.030001 44.619999 # H 
207 1 1 0.000000 39.400002 16.520000 44.790001 # H 
208 1 2 0.000000 38.119999 21.580000 37.810001 # O 
209 1 1 0.000000 38.340000 20.860001 37.209999 # H 
210 1 1 0.000000 38.959999 21.959999 38.049999 # H 
211 1 2 0.000000 45.759998 40.970001 7.460000 # O 
212 1 1 0.000000 45.070000 40.310001 7.470000 # H 
213 1 1 0.000000 46.456001 40.580002 6.930000 # H 
214 1 2 0.000000 10.090000 32.959999 35.840000 # O 
215 1 1 0.000000 9.820000 32.959999 34.919998 # H 
216 1 1 0.000000 9.270000 33.029999 36.320000 # H 
217 1 2 0.000000 38.919998 38.919998 15.800000 # O 
218 1 1 0.000000 38.549999 38.040001 15.810000 # H 
219 1 1 0.000000 38.700001 39.259998 14.940000 # H 
220 1 2 0.000000 36.700001 27.719999 13.570000 # O 
221 1 1 0.000000 37.220001 27.090000 13.080000 # H 
222 1 1 0.000000 35.869999 27.270000 13.730000 # H 
223 1 2 0.000000 2.040000 37.430000 41.360001 # O 
224 1 1 0.000000 1.210000 36.959999 41.349998 # H 
225 1 1 0.000000 2.710000 36.740002 41.349998 # H 
226 1 2 0.000000 23.049999 19.500000 14.480000 # O 
227 1 1 0.000000 24.000000 19.570000 14.560000 # H 
228 1 1 0.000000 22.709999 20.190001 15.050000 # H 
229 1 2 0.000000 13.490000 11.880000 3.220000 # O 
230 1 1 0.000000 13.060000 12.560000 2.690000 # H 
231 1 1 0.000000 12.790000 11.310000 3.510000 # H 
232 1 2 0.000000 5.090000 30.059999 23.480000 # O 
233 1 1 0.000000 4.590000 30.350000 22.719999 # H 
234 1 1 0.000000 5.970000 30.420000 23.330000 # H 
235 1 2 0.000000 5.310000 24.469999 38.450001 # O 
236 1 1 0.000000 5.260000 25.030001 37.669998 # H 
237 1 1 0.000000 6.140000 24.700001 38.860001 # H 
238 1 2 0.000000 4.340000 9.430000 16.129999 # O 
239 1 1 0.000000 3.560000 9.890000 16.450001 # H 
240 1 1 0.000000 5.060000 10.060000 16.240000 # H 
241 1 2 0.000000 7.540000 10.990000 37.080002 # O 
242 1 1 0.000000 8.000000 11.820000 37.259998 # H 
243 1 1 0.000000 7.500000 10.940000 36.130001 # H 
244 1 2 0.000000 20.389999 35.160000 29.590000 # O 
245 1 1 0.000000 20.570000 34.759998 30.440001 # H 
246 1 1 0.000000 19.570000 34.759998 29.309999 # H 
247 1 2 0.000000 41.099998 13.400000 33.480000 # O 
248 1 1 0.000000 41.450001 13.490000 32.599998 # H 
249 1 1 0.000000 40.720001 12.520000 33.509998 # H 
250 1 2 0.000000 25.690001 28.719999 18.480000 # O 
251 1 1 0.000000 24.920000 29.280001 18.540001 # H 
252 1 1 0.000000 26.100000 28.969999 17.650000 # H 
253 1 2 0.000000 41.680000 19.530001 13.080000 # O 
254 1 1 0.000000 41.910000 20.260000 13.660000 # H 
255 1 1 0.000000 42.520000 19.200001 12.760000 # H 
256 1 2 0.000000 36.990002 11.440000 37.330002 # O 
257 1 1 0.000000 36.610001 10.690000 37.779999 # H 
258 1 1 0.000000 36.650002 12.200000 37.810001 # H 
259 1 2 0.000000 17.719999 26.280001 4.370000 # O 
260 1 1 0.000000 17.410000 25.700001 3.680000 # H 
261 1 1 0.000000 16.930000 26.590000 4.810000 # H 
262 1 2 0.000000 39.639999 11.050000 11.610000 # O 
263 1 1 0.000000 40.040001 10.190000 11.550000 # H 
264 1 1 0.000000 39.000000 10.960000 12.320000 # H 
265 1 2 0.000000 32.270000 34.680000 30.639999 # O 
266 1 1 0.000000 32.240002 34.490002 29.700001 # H 
267 1 1 0.000000 31.360001 34.860001 30.870001 # H 
268 1 2 0.000000 23.790001 16.510000 30.510000 # O 
269 1 1 0.000000 23.540001 17.120001 31.200001 # H 
270 1 1 0.000000 22.980000 16.020000 30.320000 # H 
271 1 2 0.000000 14.550000 36.570000 19.250000 # O 
272 1 1 0.000000 15.200000 36.709999 19.930000 # H 
273 1 1 0.000000 14.400000 37.450001 18.879999 # H 
274 1 2 0.000000 33.299999 32.139999 20.250000 # O 
275 1 1 0.000000 32.619999 32.810001 20.200001 # H 
276 1 1 0.000000 33.990002 32.450001 19.660000 # H 
277 1 2 0.000000 33.750000 24.080000 13.090000 # O 
278 1 1 0.000000 34.570000 23.639999 12.900000 # H 
279 1 1 0.000000 34.009998 24.950001 13.410000 # H 
280 1 2 0.000000 43.230000 18.219999 3.150000 # O 
281 1 1 0.000000 42.880001 17.370001 3.410000 # H 
282 1 1 0.000000 43.709999 18.520000 3.920000 # H 
283 1 2 0.000000 36.840000 40.599998 9.210000 # O 
284 1 1 0.000000 37.619999 40.270000 9.660000 # H 
285 1 1 0.000000 36.810001 40.099998 8.390000 # H 
286 1 2 0.000000 45.779999 42.650002 9.770000 # O 
287 1 1 0.000000 45.639999 42.169998 8.960000 # H 
288 1 1 0.000000 45.540001 43.549999 9.550000 # H 
289 1 2 0.000000 29.840000 35.419998 31.370001 # O 
290 1 1 0.000000 29.299999 34.889999 30.780001 # H 
291 1 1 0.000000 29.559999 35.169998 32.250000 # H 
292 1 2 0.000000 3.520000 38.029999 12.300000 # O 
293 1 1 0.000000 4.250000 38.630001 12.460000 # H 
294 1 1 0.000000 3.720000 37.619999 11.460000 # H 
295 1 2 0.000000 22.030001 29.110001 16.670000 # O 
296 1 1 0.000000 21.670000 29.950001 16.360001 # H 
297 1 1 0.000000 22.540001 28.790001 15.920000 # H 
298 1 2 0.000000 16.360001 10.580000 40.889999 # O 
299 1 1 0.000000 15.550000 10.220000 41.250000 # H 
300 1 1 0.000000 16.910000 9.820000 40.720001 # H 
301 1 2 0.000000 20.900000 9.010000 11.530000 # O 
302 1 1 0.000000 21.240000 9.690000 10.950000 # H 
303 1 1 0.000000 21.540001 8.300000 11.460000 # H 
304 1 2 0.000000 11.580000 18.889999 44.820000 # O 
305 1 1 0.000000 11.780000 18.790001 43.889999 # H 
306 1 1 0.000000 12.270000 19.459999 45.160000 # H 
307 1 2 0.000000 25.360001 40.310001 29.889999 # O 
308 1 1 0.000000 24.889999 41.110001 30.120001 # H 
309 1 1 0.000000 24.990000 40.049999 29.049999 # H 
310 1 2 0.000000 37.439999 21.240000 40.310001 # O 
311 1 1 0.000000 37.680000 21.360001 39.389999 # H 
312 1 1 0.000000 38.279999 21.150000 40.759998 # H 
313 1 2 0.000000 21.260000 34.950001 13.310000 # O 
314 1 1 0.000000 20.340000 34.709999 13.180000 # H 
315 1 1 0.000000 21.230000 35.720001 13.870000 # H 
316 1 2 0.000000 13.750000 38.930000 18.190001 # O 
317 1 1 0.000000 12.850000 38.939999 17.850000 # H 
318 1 1 0.000000 14.270000 39.349998 17.510000 # H 
319 1 2 0.000000 42.740002 8.440000 40.480000 # O 
320 1 1 0.000000 42.980000 7.950000 39.689999 # H 
321 1 1 0.000000 41.790001 8.540000 40.419998 # H 
322 1 2 0.000000 37.130001 31.010000 19.100000 # O 
323 1 1 0.000000 38.060001 31.139999 18.889999 # H 
324 1 1 0.000000 36.799999 30.459999 18.389999 # H 
325 1 2 0.000000 25.480000 26.070000 15.790000 # O 
326 1 1 0.000000 25.200001 25.920000 16.700001 # H 
327 1 1 0.000000 26.400000 26.309999 15.850000 # H 
328 1 2 0.000000 1.000000 24.549999 29.230000 # O 
329 1 1 0.000000 0.900000 23.670000 28.870001 # H 
330 1 1 0.000000 1.950000 24.650000 29.350000 # H 
331 1 2 0.000000 31.450001 26.490000 3.660000 # O 
332 1 1 0.000000 31.690001 27.350000 3.320000 # H 
333 1 1 0.000000 32.080002 25.889999 3.250000 # H 
334 1 2 0.000000 5.300000 15.350000 18.010000 # O 
335 1 1 0.000000 6.010000 15.220000 18.650000 # H 
336 1 1 0.000000 5.050000 16.270000 18.110001 # H 
337 1 2 0.000000 31.940001 31.610001 24.559999 # O 
338 1 1 0.000000 31.920000 30.690001 24.299999 # H 
339 1 1 0.000000 31.340000 31.660000 25.299999 # H 
340 1 2 0.000000 4.020000 25.590000 26.370001 # O 
341 1 1 0.000000 3.390000 26.309999 26.459999 # H 
342 1 1 0.000000 4.870000 25.980000 26.580000 # H 
343 1 2 0.000000 44.369999 34.139999 15.120000 # O 
344 1 1 0.000000 44.650002 33.980000 16.020000 # H 
345 1 1 0.000000 44.349998 33.270000 14.720000 # H 
346 1 2 0.000000 35.169998 5.830000 22.370001 # O 
347 1 1 0.000000 34.320000 6.170000 22.650000 # H 
348 1 1 0.000000 35.020000 5.470000 21.500000 # H 
349 1 2 0.000000 36.110001 27.990000 7.880000 # O 
350 1 1 0.000000 36.950001 27.540001 8.030000 # H 
351 1 1 0.000000 35.599998 27.799999 8.660000 # H 
352 1 2 0.000000 26.370001 40.290001 18.969999 # O 
353 1 1 0.000000 26.600000 40.459999 19.879999 # H 
354 1 1 0.000000 26.469999 39.340000 18.870001 # H 
355 1 2 0.000000 9.520000 1.600000 34.950001 # O 
356 1 1 0.000000 9.720000 1.190000 35.790001 # H 
357 1 1 0.000000 8.620000 1.330000 34.759998 # H 
358 1 2 0.000000 11.400000 8.950000 10.660000 # O 
359 1 1 0.000000 11.590000 8.490000 9.840000 # H 
360 1 1 0.000000 11.770000 8.400000 11.340000 # H 
361 1 2 0.000000 45.299999 37.130001 27.480000 # O 
362 1 1 0.000000 44.849998 36.590000 26.830000 # H 
363 1 1 0.000000 46.226002 37.029999 27.270000 # H 
364 1 2 0.000000 1.410000 11.010000 2.650000 # O 
365 1 1 0.000000 1.180000 11.740000 3.240000 # H 
366 1 1 0.000000 0.660000 10.410000 2.710000 # H 
367 1 2 0.000000 30.240000 9.770000 5.170000 # O 
368 1 1 0.000000 29.690001 9.280000 5.780000 # H 
369 1 1 0.000000 29.730000 9.800000 4.360000 # H 
370 1 2 0.000000 9.990000 26.459999 31.900000 # O 
371 1 1 0.000000 10.870000 26.260000 32.209999 # H 
372 1 1 0.000000 9.400000 26.129999 32.580002 # H 
373 1 2 0.000000 32.270000 7.990000 34.340000 # O 
374 1 1 0.000000 32.459999 8.920000 34.459999 # H 
375 1 1 0.000000 33.119999 7.600000 34.130001 # H 
376 1 2 0.000000 26.090000 18.709999 40.820000 # O 
377 1 1 0.000000 26.559999 18.680000 41.650002 # H 
378 1 1 0.000000 25.520000 17.940001 40.840000 # H 
379 1 2 0.000000 44.230000 21.770000 35.889999 # O 
380 1 1 0.000000 43.799999 21.110001 36.439999 # H 
381 1 1 0.000000 43.630001 21.889999 35.150002 # H 
382 1 2 0.000000 35.049999 28.260000 2.480000 # O 
383 1 1 0.000000 35.570000 29.049999 2.640000 # H 
384 1 1 0.000000 35.009998 28.200001 1.520000 # H 
385 1 2 0.000000 12.600000 8.350000 18.219999 # O 
386 1 1 0.000000 13.230000 8.630000 17.559999 # H 
387 1 1 0.000000 11.870000 8.960000 18.139999 # H 
388 1 2 0.000000 43.529999 3.410000 35.279999 # O 
389 1 1 0.000000 44.349998 3.640000 35.709999 # H 
390 1 1 0.000000 43.540001 2.450000 35.250000 # H 
391 1 2 0.000000 24.410000 34.119999 21.160000 # O 
392 1 1 0.000000 23.590000 33.900002 21.610001 # H 
393 1 1 0.000000 25.070000 34.080002 21.850000 # H 
394 1 2 0.000000 26.930000 27.030001 37.610001 # O 
395 1 1 0.000000 26.520000 27.879999 37.770000 # H 
396 1 1 0.000000 26.430000 26.420000 38.160000 # H 
397 1 2 0.000000 5.560000 31.500000 36.430000 # O 
398 1 1 0.000000 4.860000 31.950001 35.959999 # H 
399 1 1 0.000000 5.830000 30.799999 35.840000 # H 
400 1 2 0.000000 1.220000 3.050000 8.340000 # O 
401 1 1 0.000000 0.940000 2.510000 9.090000 # H 
402 1 1 0.000000 1.820000 2.490000 7.860000 # H 
403 1 2 0.000000 19.330000 22.930000 26.510000 # O 
404 1 1 0.000000 19.570000 22.059999 26.209999 # H 
405 1 1 0.000000 19.410000 23.490000 25.730000 # H 
406 1 2 0.000000 33.840000 6.100000 17.030001 # O 
407 1 1 0.000000 34.770000 6.330000 17.030001 # H 
408 1 1 0.000000 33.840000 5.140000 16.950001 # H 
409 1 2 0.000000 8.490000 28.629999 37.410000 # O 
410 1 1 0.000000 8.950000 29.360001 36.990002 # H 
411 1 1 0.000000 7.850000 28.340000 36.759998 # H 
412 1 2 0.000000 29.030001 34.720001 27.330000 # O 
413 1 1 0.000000 29.790001 35.299999 27.459999 # H 
414 1 1 0.000000 28.459999 35.209999 26.740000 # H 
415 1 2 0.000000 2.500000 28.290001 38.220001 # O 
416 1 1 0.000000 1.780000 28.889999 38.040001 # H 
417 1 1 0.000000 2.180000 27.740000 38.930000 # H 
418 1 2 0.000000 25.930000 41.889999 45.549999 # O 
419 1 1 0.000000 25.650000 42.150002 44.669998 # H 
420 1 1 0.000000 25.530001 41.029999 45.680000 # H 
421 1 2 0.000000 34.349998 14.380000 36.650002 # O 
422 1 1 0.000000 33.709999 15.090000 36.639999 # H 
423 1 1 0.000000 34.720001 14.380000 35.759998 # H 
424 1 2 0.000000 39.259998 43.209999 2.530000 # O 
425 1 1 0.000000 38.970001 42.299999 2.420000 # H 
426 1 1 0.000000 39.200001 43.360001 3.480000 # H 
427 1 2 0.000000 10.400000 22.930000 4.330000 # O 
428 1 1 0.000000 10.280000 23.809999 3.970000 # H 
429 1 1 0.000000 9.950000 22.350000 3.710000 # H 
430 1 2 0.000000 36.189999 10.010000 35.209999 # O 
431 1 1 0.000000 36.750000 10.240000 34.470001 # H 
432 1 1 0.000000 36.419998 10.640000 35.889999 # H 
433 1 2 0.000000 45.380001 37.290001 35.380001 # O 
434 1 1 0.000000 44.919998 36.459999 35.419998 # H 
435 1 1 0.000000 46.195999 37.130001 35.869999 # H 
436 1 2 0.000000 11.570000 8.160000 32.119999 # O 
437 1 1 0.000000 10.790000 8.470000 31.670000 # H 
438 1 1 0.000000 11.380000 8.290000 33.049999 # H 
439 1 2 0.000000 44.439999 19.809999 42.750000 # O 
440 1 1 0.000000 43.930000 20.610001 42.900002 # H 
441 1 1 0.000000 43.880001 19.100000 43.029999 # H 
442 1 2 0.000000 19.129999 31.990000 42.549999 # O 
443 1 1 0.000000 18.490000 32.660000 42.790001 # H 
444 1 1 0.000000 18.639999 31.170000 42.560001 # H 
445 1 2 0.000000 23.020000 9.610000 34.209999 # O 
446 1 1 0.000000 23.670000 9.910000 33.570000 # H 
447 1 1 0.000000 22.840000 10.390000 34.730000 # H 
448 1 2 0.000000 39.880001 4.740000 44.060001 # O 
449 1 1 0.000000 39.950001 3.980000 44.639999 # H 
450 1 1 0.000000 39.360001 4.430000 43.320000 # H 
451 1 2 0.000000 10.870000 24.129999 11.810000 # O 
452 1 1 0.000000 10.520000 23.750000 11.000000 # H 
453 1 1 0.000000 10.540000 23.570000 12.510000 # H 
454 1 2 0.000000 4.510000 38.590000 21.290001 # O 
455 1 1 0.000000 4.640000 39.410000 21.770000 # H 
456 1 1 0.000000 5.390000 38.220001 21.190001 # H 
457 1 2 0.000000 38.919998 5.650000 38.709999 # O 
458 1 1 0.000000 39.869999 5.700000 38.869999 # H 
459 1 1 0.000000 38.549999 6.280000 39.330002 # H 
460 1 2 0.000000 18.080000 43.000000 9.000000 # O 
461 1 1 0.000000 18.209999 42.549999 8.160000 # H 
462 1 1 0.000000 18.420000 43.880001 8.850000 # H 
463 1 2 0.000000 5.110000 21.850000 16.139999 # O 
464 1 1 0.000000 5.370000 20.980000 16.430000 # H 
465 1 1 0.000000 5.590000 21.990000 15.330000 # H 
466 1 2 0.000000 14.010000 26.740000 25.160000 # O 
467 1 1 0.000000 14.070000 27.360001 25.889999 # H 
468 1 1 0.000000 13.560000 25.980000 25.520000 # H 
469 1 2 0.000000 30.580000 4.620000 10.320000 # O 
470 1 1 0.000000 30.309999 5.510000 10.540000 # H 
471 1 1 0.000000 30.209999 4.450000 9.460000 # H 
472 1 2 0.000000 42.590000 3.760000 13.200000 # O 
473 1 1 0.000000 43.310001 3.150000 13.050000 # H 
474 1 1 0.000000 42.009998 3.290000 13.810000 # H 
475 1 2 0.000000 25.900000 3.810000 32.599998 # O 
476 1 1 0.000000 26.650000 3.210000 32.540001 # H 
477 1 1 0.000000 26.290001 4.680000 32.639999 # H 
478 1 2 0.000000 19.250000 41.709999 18.170000 # O 
479 1 1 0.000000 18.860001 41.040001 18.730000 # H 
480 1 1 0.000000 18.500000 42.209999 17.840000 # H 
481 1 2 0.000000 23.740000 38.349998 17.840000 # O 
482 1 1 0.000000 23.790001 37.889999 18.680000 # H 
483 1 1 0.000000 23.100000 39.040001 17.980000 # H 
484 1 2 0.000000 8.070000 42.939999 3.730000 # O 
485 1 1 0.000000 8.030000 42.650002 4.640000 # H 
486 1 1 0.000000 8.870000 43.470001 3.680000 # H 
487 1 2 0.000000 35.450001 33.090000 18.080000 # O 
488 1 1 0.000000 35.820000 32.320000 18.520000 # H 
489 1 1 0.000000 36.169998 33.430000 17.549999 # H 
490 1 2 0.000000 2.380000 2.340000 15.730000 # O 
491 1 1 0.000000 2.170000 3.160000 16.160000 # H 
492 1 1 0.000000 2.300000 1.680000 16.420000 # H 
493 1 2 0.000000 30.420000 28.780001 35.330002 # O 
494 1 1 0.000000 30.170000 29.459999 35.959999 # H 
495 1 1 0.000000 30.400000 29.209999 34.480000 # H 
496 1 2 0.000000 41.150002 25.940001 24.309999 # O 
497 1 1 0.000000 41.340000 25.070000 23.969999 # H 
498 1 1 0.000000 41.970001 26.420000 24.209999 # H 
499 1 2 0.000000 11.110000 33.790001 28.510000 # O 
500 1 1 0.000000 10.240000 33.439999 28.330000 # H 
501 1 1 0.000000 11.710000 33.090000 28.260000 # H 
502 1 2 0.000000 13.850000 20.629999 12.380000 # O 
503 1 1 0.000000 14.020000 21.490000 11.990000 # H 
504 1 1 0.000000 13.590000 20.820000 13.280000 # H 
505 1 2 0.000000 4.200000 35.430000 7.530000 # O 
506 1 1 0.000000 5.070000 35.529999 7.160000 # H 
507 1 1 0.000000 4.220000 35.950001 8.330000 # H 
508 1 2 0.000000 36.950001 5.290000 27.420000 # O 
509 1 1 0.000000 37.860001 5.390000 27.150000 # H 
510 1 1 0.000000 36.990002 4.820000 28.250000 # H 
511 1 2 0.000000 33.970001 3.540000 29.309999 # O 
512 1 1 0.000000 33.820000 3.410000 30.250000 # H 
513 1 1 0.000000 33.959999 2.650000 28.940001 # H 
514 1 2 0.000000 22.190001 2.640000 15.360000 # O 
515 1 1 0.000000 22.770000 2.090000 14.840000 # H 
516 1 1 0.000000 22.430000 2.440000 16.270000 # H 
517 1 2 0.000000 39.259998 20.780001 29.639999 # O 
518 1 1 0.000000 38.860001 19.920000 29.700001 # H 
519 1 1 0.000000 38.680000 21.280001 29.059999 # H 
520 1 2 0.000000 12.510000 25.440001 32.419998 # O 
521 1 1 0.000000 12.670000 24.530001 32.669998 # H 
522 1 1 0.000000 13.150000 25.610001 31.730000 # H 
523 1 2 0.000000 6.240000 16.150000 11.430000 # O 
524 1 1 0.000000 5.380000 16.570000 11.370000 # H 
525 1 1 0.000000 6.860000 16.870001 11.540000 # H 
526 1 2 0.000000 28.430000 14.460000 12.280000 # O 
527 1 1 0.000000 28.090000 13.900000 12.980000 # H 
528 1 1 0.000000 29.139999 13.960000 11.890000 # H 
529 1 2 0.000000 29.930000 30.690001 37.520000 # O 
530 1 1 0.000000 29.059999 30.940001 37.840000 # H 
531 1 1 0.000000 30.389999 31.520000 37.419998 # H 
532 1 2 0.000000 26.379999 21.799999 37.340000 # O 
533 1 1 0.000000 27.240000 22.129999 37.590000 # H 
534 1 1 0.000000 26.360001 20.900000 37.660000 # H 
535 1 2 0.000000 24.340000 2.860000 39.619999 # O 
536 1 1 0.000000 24.139999 3.720000 39.970001 # H 
537 1 1 0.000000 24.690001 3.030000 38.750000 # H 
538 1 2 0.000000 16.430000 35.650002 27.469999 # O 
539 1 1 0.000000 16.520000 35.270000 26.590000 # H 
540 1 1 0.000000 15.520000 35.470001 27.709999 # H 
541 1 2 0.000000 39.720001 25.299999 31.170000 # O 
542 1 1 0.000000 40.349998 24.620001 31.400000 # H 
543 1 1 0.000000 40.009998 26.070000 31.660000 # H 
544 1 2 0.000000 44.900002 41.480000 25.740000 # O 
545 1 1 0.000000 44.790001 41.040001 24.889999 # H 
546 1 1 0.000000 44.709999 40.799999 26.389999 # H 
547 1 2 0.000000 39.840000 30.500000 31.379999 # O 
548 1 1 0.000000 39.580002 31.219999 31.959999 # H 
549 1 1 0.000000 39.020000 30.100000 31.110001 # H 
550 1 2 0.000000 19.430000 4.920000 13.010000 # O 
551 1 1 0.000000 18.820000 4.250000 13.310000 # H 
552 1 1 0.000000 20.030001 5.050000 13.740000 # H 
553 1 2 0.000000 44.270000 8.080000 17.790001 # O 
554 1 1 0.000000 43.700001 7.310000 17.860001 # H 
555 1 1 0.000000 44.950001 7.940000 18.440001 # H 
556 1 2 0.000000 45.910000 7.020000 27.389999 # O 
557 1 1 0.000000 45.320000 6.630000 26.750000 # H 
558 1 1 0.000000 45.500000 6.850000 28.230000 # H 
559 1 2 0.000000 6.340000 12.670000 43.689999 # O 
560 1 1 0.000000 6.400000 13.590000 43.439999 # H 
561 1 1 0.000000 7.000000 12.560000 44.380001 # H 
562 1 2 0.000000 15.570000 0.680000 26.620001 # O 
563 1 1 0.000000 14.710000 0.890000 26.250000 # H 
564 1 1 0.000000 15.940000 1.530000 26.870001 # H 
565 1 2 0.000000 17.750000 28.670000 1.330000 # O 
566 1 1 0.000000 17.990000 29.010000 2.190000 # H 
567 1 1 0.000000 18.549999 28.730000 0.810000 # H 
568 1 2 0.000000 36.240002 25.690001 35.810001 # O 
569 1 1 0.000000 35.700001 26.150000 36.450001 # H 
570 1 1 0.000000 36.279999 24.790001 36.130001 # H 
571 1 2 0.000000 26.950001 41.090000 21.629999 # O 
572 1 1 0.000000 27.700001 40.540001 21.850000 # H 
573 1 1 0.000000 27.309999 41.970001 21.549999 # H 
574 1 2 0.000000 3.070000 5.550000 32.900002 # O 
575 1 1 0.000000 3.770000 6.090000 33.270000 # H 
576 1 1 0.000000 2.790000 6.010000 32.119999 # H 