LAMMPS data file. CGCMM style. atom_style full generated by VMD/TopoTools v1.7 on Tue Mar 12 09:29:05 GMT 2019
 5472 atoms
 3648 bonds
 1824 angles
 0 dihedrals
 0 impropers
 2 atom types
 1 bond types
 1 angle types
 0 dihedral types
 0 improper types
 0.530001 46.030001  xlo xhi
 -0.619999 44.880001  ylo yhi
 -362.544999 90.455001  zlo zhi

# Pair Coeffs
#
# 1  H
# 2  O

# Bond Coeffs
#
# 1  

# Angle Coeffs
#
# 1  H-O-H

 Masses

 1 1.007940 # H
 2 15.999400 # O

 Atoms # full

1 1 2 0.000000 18.549999 7.280000 7.880000 # O MOL
2 1 1 0.000000 18.260000 8.130000 7.550000 # H MOL
3 1 1 0.000000 17.760000 6.860000 8.220000 # H MOL
4 1 2 0.000000 32.919998 16.240000 20.709999 # O MOL
5 1 1 0.000000 32.950001 16.090000 19.770000 # H MOL
6 1 1 0.000000 33.349998 17.080000 20.840000 # H MOL
7 1 2 0.000000 11.490000 16.650000 1.410000 # O MOL
8 1 1 0.000000 11.910000 16.629999 0.550000 # H MOL
9 1 1 0.000000 11.900000 15.940000 1.900000 # H MOL
10 1 2 0.000000 28.320000 39.980000 3.580000 # O MOL
11 1 1 0.000000 28.670000 40.849998 3.360000 # H MOL
12 1 1 0.000000 29.049999 39.380001 3.430000 # H MOL
13 1 2 0.000000 1.030000 19.450001 2.460000 # O MOL
14 1 1 0.000000 1.190000 19.389999 1.520000 # H MOL
15 1 1 0.000000 1.240000 18.580000 2.800000 # H MOL
16 1 2 0.000000 14.790000 17.840000 4.870000 # O MOL
17 1 1 0.000000 13.890000 17.549999 4.730000 # H MOL
18 1 1 0.000000 14.710000 18.610001 5.440000 # H MOL
19 1 2 0.000000 0.610000 6.960000 16.420000 # O MOL
20 1 1 0.000000 0.740000 7.010000 15.470000 # H MOL
21 1 1 0.000000 0.990000 7.770000 16.750000 # H MOL
22 1 2 0.000000 41.029999 31.930000 28.309999 # O MOL
23 1 1 0.000000 40.320000 32.290001 27.780001 # H MOL
24 1 1 0.000000 40.669998 31.850000 29.190001 # H MOL
25 1 2 0.000000 33.889999 1.820000 11.580000 # O MOL
26 1 1 0.000000 34.759998 1.910000 11.970000 # H MOL
27 1 1 0.000000 33.770000 0.880000 11.500000 # H MOL
28 1 2 0.000000 10.950000 14.740000 11.530000 # O MOL
29 1 1 0.000000 11.670000 14.670000 10.910000 # H MOL
30 1 1 0.000000 11.330000 14.470000 12.370000 # H MOL
31 1 2 0.000000 10.120000 10.150000 26.940001 # O MOL
32 1 1 0.000000 10.010000 9.390000 26.370001 # H MOL
33 1 1 0.000000 9.580000 9.950000 27.709999 # H MOL
34 1 2 0.000000 12.270000 16.510000 18.809999 # O MOL
35 1 1 0.000000 11.500000 16.000000 18.540001 # H MOL
36 1 1 0.000000 12.420000 17.110001 18.080000 # H MOL
37 1 2 0.000000 31.580000 15.880000 2.770000 # O MOL
38 1 1 0.000000 31.540001 16.510000 3.480000 # H MOL
39 1 1 0.000000 31.860001 15.070000 3.180000 # H MOL
40 1 2 0.000000 9.310000 34.209999 17.500000 # O MOL
41 1 1 0.000000 8.840000 33.660000 16.870001 # H MOL
42 1 1 0.000000 8.830000 34.099998 18.320000 # H MOL
43 1 2 0.000000 6.270000 5.800000 23.660000 # O MOL
44 1 1 0.000000 6.550000 6.320000 22.900000 # H MOL
45 1 1 0.000000 5.360000 6.070000 23.799999 # H MOL
46 1 2 0.000000 22.990000 21.090000 24.900000 # O MOL
47 1 1 0.000000 23.230000 20.389999 25.510000 # H MOL
48 1 1 0.000000 22.059999 20.930000 24.709999 # H MOL
49 1 2 0.000000 39.459999 43.549999 8.450000 # O MOL
50 1 1 0.000000 39.660000 43.160000 9.300000 # H MOL
51 1 1 0.000000 39.450001 42.799999 7.840000 # H MOL
52 1 2 0.000000 16.520000 39.130001 15.370000 # O MOL
53 1 1 0.000000 17.290001 38.990002 14.830000 # H MOL
54 1 1 0.000000 15.790000 39.180000 14.750000 # H MOL
55 1 2 0.000000 14.740000 2.610000 11.590000 # O MOL
56 1 1 0.000000 15.100000 1.790000 11.910000 # H MOL
57 1 1 0.000000 14.280000 2.980000 12.340000 # H MOL
58 1 2 0.000000 37.099998 26.010000 4.800000 # O MOL
59 1 1 0.000000 36.910000 26.900000 4.500000 # H MOL
60 1 1 0.000000 36.570000 25.459999 4.230000 # H MOL
61 1 2 0.000000 12.190000 37.840000 6.170000 # O MOL
62 1 1 0.000000 13.130000 37.990002 6.250000 # H MOL
63 1 1 0.000000 11.790000 38.660000 6.460000 # H MOL
64 1 2 0.000000 31.600000 31.900000 18.389999 # O MOL
65 1 1 0.000000 32.310001 31.270000 18.260000 # H MOL
66 1 1 0.000000 31.610001 32.090000 19.330000 # H MOL
67 1 2 0.000000 29.389999 28.850000 10.150000 # O MOL
68 1 1 0.000000 28.820000 28.540001 10.850000 # H MOL
69 1 1 0.000000 30.110001 28.209999 10.110000 # H MOL
70 1 2 0.000000 31.459999 29.209999 1.200000 # O MOL
71 1 1 0.000000 31.760000 29.590000 2.020000 # H MOL
72 1 1 0.000000 31.230000 28.309999 1.420000 # H MOL
73 1 2 0.000000 29.879999 1.840000 13.930000 # O MOL
74 1 1 0.000000 30.139999 1.640000 14.830000 # H MOL
75 1 1 0.000000 28.959999 2.090000 14.010000 # H MOL
76 1 2 0.000000 17.860001 31.450001 12.820000 # O MOL
77 1 1 0.000000 18.370001 32.119999 13.270000 # H MOL
78 1 1 0.000000 18.230000 31.420000 11.940000 # H MOL
79 1 2 0.000000 38.480000 9.220000 -0.170000 # O MOL
80 1 1 0.000000 38.560001 8.900000 -1.070000 # H MOL
81 1 1 0.000000 38.970001 8.570000 0.350000 # H MOL
82 1 2 0.000000 43.790001 24.410000 5.740000 # O MOL
83 1 1 0.000000 43.680000 23.469999 5.620000 # H MOL
84 1 1 0.000000 42.980000 24.690001 6.180000 # H MOL
85 1 2 0.000000 39.610001 39.060001 15.950000 # O MOL
86 1 1 0.000000 38.669998 39.130001 16.090000 # H MOL
87 1 1 0.000000 39.709999 39.099998 15.000000 # H MOL
88 1 2 0.000000 21.629999 18.350000 3.420000 # O MOL
89 1 1 0.000000 22.450001 18.570000 3.850000 # H MOL
90 1 1 0.000000 21.219999 19.200001 3.230000 # H MOL
91 1 2 0.000000 38.430000 21.350000 15.840000 # O MOL
92 1 1 0.000000 37.889999 22.100000 16.059999 # H MOL
93 1 1 0.000000 38.299999 20.730000 16.559999 # H MOL
94 1 2 0.000000 9.750000 1.930000 21.270000 # O MOL
95 1 1 0.000000 8.880000 1.580000 21.090000 # H MOL
96 1 1 0.000000 10.340000 1.190000 21.100000 # H MOL
97 1 2 0.000000 13.700000 20.879999 2.780000 # O MOL
98 1 1 0.000000 13.800000 20.629999 1.870000 # H MOL
99 1 1 0.000000 13.250000 20.139999 3.190000 # H MOL
100 1 2 0.000000 28.070000 14.380000 24.340000 # O MOL
101 1 1 0.000000 27.650000 14.460000 25.200001 # H MOL
102 1 1 0.000000 28.920000 14.810000 24.450001 # H MOL
103 1 2 0.000000 2.440000 34.450001 24.469999 # O MOL
104 1 1 0.000000 1.650000 34.810001 24.860001 # H MOL
105 1 1 0.000000 2.510000 33.560001 24.830000 # H MOL
106 1 2 0.000000 21.200001 0.760000 3.650000 # O MOL
107 1 1 0.000000 21.600000 0.060000 4.170000 # H MOL
108 1 1 0.000000 20.940001 1.420000 4.300000 # H MOL
109 1 2 0.000000 28.660000 35.900002 19.820000 # O MOL
110 1 1 0.000000 28.389999 35.570000 18.969999 # H MOL
111 1 1 0.000000 29.400000 36.480000 19.629999 # H MOL
112 1 2 0.000000 40.860001 28.969999 3.710000 # O MOL
113 1 1 0.000000 41.639999 29.490000 3.890000 # H MOL
114 1 1 0.000000 41.049999 28.500000 2.900000 # H MOL
115 1 2 0.000000 36.450001 4.070000 29.740000 # O MOL
116 1 1 0.000000 35.610001 3.910000 29.320000 # H MOL
117 1 1 0.000000 36.959999 4.550000 29.090000 # H MOL
118 1 2 0.000000 3.860000 31.500000 3.560000 # O MOL
119 1 1 0.000000 3.170000 31.000000 4.000000 # H MOL
120 1 1 0.000000 4.570000 30.860001 3.430000 # H MOL
121 1 2 0.000000 17.510000 10.860000 17.580000 # O MOL
122 1 1 0.000000 16.760000 11.140000 17.059999 # H MOL
123 1 1 0.000000 17.320000 9.950000 17.820000 # H MOL
124 1 2 0.000000 6.970000 21.219999 22.260000 # O MOL
125 1 1 0.000000 6.700000 20.790001 21.450001 # H MOL
126 1 1 0.000000 6.370000 20.879999 22.920000 # H MOL
127 1 2 0.000000 6.100000 7.890000 19.090000 # O MOL
128 1 1 0.000000 5.250000 7.470000 19.200001 # H MOL
129 1 1 0.000000 6.470000 7.490000 18.299999 # H MOL
130 1 2 0.000000 45.189999 2.780000 16.980000 # O MOL
131 1 1 0.000000 45.810001 3.490000 17.100000 # H MOL
132 1 1 0.000000 45.349998 2.190000 17.709999 # H MOL
133 1 2 0.000000 31.270000 40.689999 16.340000 # O MOL
134 1 1 0.000000 31.520000 40.130001 17.070000 # H MOL
135 1 1 0.000000 30.500000 41.169998 16.660000 # H MOL
136 1 2 0.000000 16.980000 19.490000 8.190000 # O MOL
137 1 1 0.000000 17.420000 18.660000 7.990000 # H MOL
138 1 1 0.000000 16.150000 19.440001 7.710000 # H MOL
139 1 2 0.000000 26.430000 16.780001 2.920000 # O MOL
140 1 1 0.000000 25.780001 16.549999 2.260000 # H MOL
141 1 1 0.000000 27.260000 16.480000 2.550000 # H MOL
142 1 2 0.000000 31.650000 36.369999 18.740000 # O MOL
143 1 1 0.000000 31.850000 36.009998 19.600000 # H MOL
144 1 1 0.000000 31.469999 35.599998 18.200001 # H MOL
145 1 2 0.000000 23.940001 35.439999 1.620000 # O MOL
146 1 1 0.000000 24.660000 34.849998 1.410000 # H MOL
147 1 1 0.000000 23.910000 35.439999 2.580000 # H MOL
148 1 2 0.000000 3.020000 23.730000 6.990000 # O MOL
149 1 1 0.000000 2.080000 23.870001 7.020000 # H MOL
150 1 1 0.000000 3.380000 24.570000 6.700000 # H MOL
151 1 2 0.000000 38.959999 29.350000 20.730000 # O MOL
152 1 1 0.000000 38.599998 28.559999 21.139999 # H MOL
153 1 1 0.000000 39.790001 29.510000 21.190001 # H MOL
154 1 2 0.000000 11.920000 24.090000 17.540001 # O MOL
155 1 1 0.000000 11.870000 24.799999 16.900000 # H MOL
156 1 1 0.000000 12.260000 24.510000 18.330000 # H MOL
157 1 2 0.000000 29.639999 6.330000 22.709999 # O MOL
158 1 1 0.000000 28.850000 6.800000 22.440001 # H MOL
159 1 1 0.000000 30.309999 6.590000 22.070000 # H MOL
160 1 2 0.000000 18.320000 33.049999 16.920000 # O MOL
161 1 1 0.000000 18.820000 33.389999 16.170000 # H MOL
162 1 1 0.000000 17.799999 32.330002 16.559999 # H MOL
163 1 2 0.000000 15.830000 28.330000 22.780001 # O MOL
164 1 1 0.000000 15.610000 28.930000 22.070000 # H MOL
165 1 1 0.000000 16.360001 27.650000 22.360001 # H MOL
166 1 2 0.000000 32.680000 12.950000 11.930000 # O MOL
167 1 1 0.000000 33.090000 13.390000 12.680000 # H MOL
168 1 1 0.000000 32.750000 13.570000 11.210000 # H MOL
169 1 2 0.000000 32.389999 19.410000 8.800000 # O MOL
170 1 1 0.000000 33.299999 19.400000 9.090000 # H MOL
171 1 1 0.000000 32.169998 20.340000 8.760000 # H MOL
172 1 2 0.000000 43.410000 38.000000 6.630000 # O MOL
173 1 1 0.000000 44.299999 37.759998 6.350000 # H MOL
174 1 1 0.000000 43.259998 37.490002 7.420000 # H MOL
175 1 2 0.000000 29.680000 29.760000 5.130000 # O MOL
176 1 1 0.000000 29.240000 30.040001 4.320000 # H MOL
177 1 1 0.000000 29.860001 28.830000 4.990000 # H MOL
178 1 2 0.000000 6.980000 16.860001 9.600000 # O MOL
179 1 1 0.000000 6.650000 16.620001 10.470000 # H MOL
180 1 1 0.000000 7.690000 16.250000 9.430000 # H MOL
181 1 2 0.000000 22.450001 18.820000 18.110001 # O MOL
182 1 1 0.000000 23.240000 18.650000 18.629999 # H MOL
183 1 1 0.000000 22.760000 18.870001 17.209999 # H MOL
184 1 2 0.000000 40.860001 0.240000 17.850000 # O MOL
185 1 1 0.000000 41.730000 -0.010000 17.540001 # H MOL
186 1 1 0.000000 40.939999 1.170000 18.080000 # H MOL
187 1 2 0.000000 31.379999 21.870001 9.610000 # O MOL
188 1 1 0.000000 31.889999 22.430000 10.200000 # H MOL
189 1 1 0.000000 30.910000 21.270000 10.180000 # H MOL
190 1 2 0.000000 10.840000 -0.690000 14.020000 # O MOL
191 1 1 0.000000 10.960000 0.140000 13.550000 # H MOL
192 1 1 0.000000 9.890000 -0.770000 14.120000 # H MOL
193 1 2 0.000000 43.630001 44.840000 17.270000 # O MOL
194 1 1 0.000000 44.470001 45.189999 17.559999 # H MOL
195 1 1 0.000000 43.619999 43.939999 17.600000 # H MOL
196 1 2 0.000000 28.650000 19.430000 4.970000 # O MOL
197 1 1 0.000000 28.490000 19.850000 5.820000 # H MOL
198 1 1 0.000000 27.809999 19.510000 4.510000 # H MOL
199 1 2 0.000000 40.270000 9.680000 26.410000 # O MOL
200 1 1 0.000000 40.689999 8.850000 26.620001 # H MOL
201 1 1 0.000000 40.980000 10.320000 26.430000 # H MOL
202 1 2 0.000000 21.260000 24.200001 17.660000 # O MOL
203 1 1 0.000000 21.120001 24.020000 18.590000 # H MOL
204 1 1 0.000000 20.450001 24.629999 17.370001 # H MOL
205 1 2 0.000000 10.850000 18.190001 9.370000 # O MOL
206 1 1 0.000000 10.460000 19.059999 9.380000 # H MOL
207 1 1 0.000000 11.680000 18.290001 9.840000 # H MOL
208 1 2 0.000000 16.400000 30.049999 5.490000 # O MOL
209 1 1 0.000000 17.320000 29.770000 5.420000 # H MOL
210 1 1 0.000000 16.160000 29.850000 6.400000 # H MOL
211 1 2 0.000000 23.299999 18.309999 10.750000 # O MOL
212 1 1 0.000000 22.370001 18.309999 10.970000 # H MOL
213 1 1 0.000000 23.580000 17.400000 10.880000 # H MOL
214 1 2 0.000000 29.059999 37.380001 16.639999 # O MOL
215 1 1 0.000000 28.650000 36.549999 16.389999 # H MOL
216 1 1 0.000000 29.980000 37.279999 16.370001 # H MOL
217 1 2 0.000000 34.040001 7.940000 26.990000 # O MOL
218 1 1 0.000000 33.590000 7.120000 27.219999 # H MOL
219 1 1 0.000000 34.619999 8.110000 27.730000 # H MOL
220 1 2 0.000000 18.510000 38.410000 13.720000 # O MOL
221 1 1 0.000000 19.440001 38.520000 13.920000 # H MOL
222 1 1 0.000000 18.379999 37.470001 13.680000 # H MOL
223 1 2 0.000000 40.570000 36.980000 5.470000 # O MOL
224 1 1 0.000000 40.660000 36.080002 5.790000 # H MOL
225 1 1 0.000000 41.439999 37.369999 5.620000 # H MOL
226 1 2 0.000000 42.349998 24.020000 13.270000 # O MOL
227 1 1 0.000000 41.709999 24.559999 13.730000 # H MOL
228 1 1 0.000000 43.029999 24.639999 13.000000 # H MOL
229 1 2 0.000000 36.820000 13.380000 13.620000 # O MOL
230 1 1 0.000000 36.009998 13.880000 13.760000 # H MOL
231 1 1 0.000000 36.610001 12.780000 12.910000 # H MOL
232 1 2 0.000000 23.000000 10.700000 3.020000 # O MOL
233 1 1 0.000000 22.500000 11.490000 2.800000 # H MOL
234 1 1 0.000000 23.250000 10.330000 2.180000 # H MOL
235 1 2 0.000000 29.000000 7.160000 17.340000 # O MOL
236 1 1 0.000000 29.000000 7.210000 16.389999 # H MOL
237 1 1 0.000000 29.920000 7.200000 17.590000 # H MOL
238 1 2 0.000000 35.779999 36.680000 9.330000 # O MOL
239 1 1 0.000000 35.720001 36.880001 10.270000 # H MOL
240 1 1 0.000000 35.070000 37.180000 8.930000 # H MOL
241 1 2 0.000000 32.570000 26.120001 7.470000 # O MOL
242 1 1 0.000000 32.709999 27.070000 7.420000 # H MOL
243 1 1 0.000000 33.400002 25.770000 7.760000 # H MOL
244 1 2 0.000000 30.870001 0.650000 16.200001 # O MOL
245 1 1 0.000000 31.639999 0.190000 15.860000 # H MOL
246 1 1 0.000000 31.070000 0.780000 17.129999 # H MOL
247 1 2 0.000000 19.330000 15.240000 19.309999 # O MOL
248 1 1 0.000000 20.280001 15.210000 19.350000 # H MOL
249 1 1 0.000000 19.139999 15.980000 18.730000 # H MOL
250 1 2 0.000000 40.630001 29.190001 25.040001 # O MOL
251 1 1 0.000000 40.310001 29.969999 24.590000 # H MOL
252 1 1 0.000000 41.150002 29.540001 25.770000 # H MOL
253 1 2 0.000000 3.140000 3.040000 22.120001 # O MOL
254 1 1 0.000000 2.350000 3.100000 22.650000 # H MOL
255 1 1 0.000000 3.850000 3.290000 22.709999 # H MOL
256 1 2 0.000000 26.129999 35.709999 15.510000 # O MOL
257 1 1 0.000000 25.520000 36.130001 16.100000 # H MOL
258 1 1 0.000000 26.379999 36.389999 14.890000 # H MOL
259 1 2 0.000000 24.910000 11.470000 0.410000 # O MOL
260 1 1 0.000000 24.420000 12.260000 0.170000 # H MOL
261 1 1 0.000000 25.430000 11.740000 1.170000 # H MOL
262 1 2 0.000000 41.810001 26.830000 23.889999 # O MOL
263 1 1 0.000000 41.480000 27.690001 24.110001 # H MOL
264 1 1 0.000000 41.910000 26.840000 22.940001 # H MOL
265 1 2 0.000000 32.610001 11.500000 15.420000 # O MOL
266 1 1 0.000000 32.230000 11.230000 16.260000 # H MOL
267 1 1 0.000000 31.850000 11.690000 14.870000 # H MOL
268 1 2 0.000000 13.220000 28.209999 19.230000 # O MOL
269 1 1 0.000000 12.770000 27.809999 19.969999 # H MOL
270 1 1 0.000000 13.380000 29.110001 19.510000 # H MOL
271 1 2 0.000000 44.320000 15.000000 3.630000 # O MOL
272 1 1 0.000000 44.450001 14.210000 4.150000 # H MOL
273 1 1 0.000000 43.470001 15.340000 3.910000 # H MOL
274 1 2 0.000000 25.299999 26.850000 6.070000 # O MOL
275 1 1 0.000000 26.090000 26.969999 5.550000 # H MOL
276 1 1 0.000000 25.520000 26.150000 6.690000 # H MOL
277 1 2 0.000000 39.860001 41.630001 6.540000 # O MOL
278 1 1 0.000000 39.290001 41.860001 5.810000 # H MOL
279 1 1 0.000000 39.540001 40.779999 6.840000 # H MOL
280 1 2 0.000000 14.960000 14.570000 24.139999 # O MOL
281 1 1 0.000000 15.640000 15.230000 24.280001 # H MOL
282 1 1 0.000000 15.250000 13.820000 24.650000 # H MOL
283 1 2 0.000000 13.810000 20.100000 0.140000 # O MOL
284 1 1 0.000000 14.230000 20.719999 -0.450000 # H MOL
285 1 1 0.000000 12.870000 20.180000 -0.050000 # H MOL
286 1 2 0.000000 28.260000 34.299999 22.190001 # O MOL
287 1 1 0.000000 27.320000 34.119999 22.120001 # H MOL
288 1 1 0.000000 28.440001 34.869999 21.450001 # H MOL
289 1 2 0.000000 13.180000 24.490000 21.450001 # O MOL
290 1 1 0.000000 12.780000 24.430000 22.320000 # H MOL
291 1 1 0.000000 14.120000 24.510000 21.610001 # H MOL
292 1 2 0.000000 1.180000 6.950000 13.640000 # O MOL
293 1 1 0.000000 1.970000 7.430000 13.370000 # H MOL
294 1 1 0.000000 1.450000 6.030000 13.650000 # H MOL
295 1 2 0.000000 4.490000 1.550000 4.260000 # O MOL
296 1 1 0.000000 4.610000 2.470000 4.010000 # H MOL
297 1 1 0.000000 4.950000 1.060000 3.580000 # H MOL
298 1 2 0.000000 43.980000 7.230000 13.130000 # O MOL
299 1 1 0.000000 44.070000 7.730000 12.310000 # H MOL
300 1 1 0.000000 44.880001 7.070000 13.410000 # H MOL
301 1 2 0.000000 24.610001 40.189999 15.380000 # O MOL
302 1 1 0.000000 25.500000 40.060001 15.700000 # H MOL
303 1 1 0.000000 24.240000 40.840000 15.980000 # H MOL
304 1 2 0.000000 22.290001 37.639999 9.080000 # O MOL
305 1 1 0.000000 22.590000 37.090000 8.350000 # H MOL
306 1 1 0.000000 22.969999 38.310001 9.160000 # H MOL
307 1 2 0.000000 40.020000 18.040001 4.070000 # O MOL
308 1 1 0.000000 40.520000 17.270000 3.810000 # H MOL
309 1 1 0.000000 39.380001 18.150000 3.370000 # H MOL
310 1 2 0.000000 24.990000 2.260000 18.370001 # O MOL
311 1 1 0.000000 25.180000 3.080000 17.900000 # H MOL
312 1 1 0.000000 25.790001 1.740000 18.270000 # H MOL
313 1 2 0.000000 22.469999 18.049999 0.710000 # O MOL
314 1 1 0.000000 22.910000 18.879999 0.520000 # H MOL
315 1 1 0.000000 22.459999 17.990000 1.660000 # H MOL
316 1 2 0.000000 29.709999 25.850000 16.709999 # O MOL
317 1 1 0.000000 30.240000 25.840000 15.910000 # H MOL
318 1 1 0.000000 29.910000 26.690001 17.120001 # H MOL
319 1 2 0.000000 10.600000 29.760000 18.309999 # O MOL
320 1 1 0.000000 11.300000 29.420000 18.870001 # H MOL
321 1 1 0.000000 11.010000 30.459999 17.820000 # H MOL
322 1 2 0.000000 39.630001 26.600000 16.639999 # O MOL
323 1 1 0.000000 39.150002 27.420000 16.700001 # H MOL
324 1 1 0.000000 40.490002 26.790001 16.990000 # H MOL
325 1 2 0.000000 24.820000 5.920000 20.129999 # O MOL
326 1 1 0.000000 25.450001 6.440000 19.629999 # H MOL
327 1 1 0.000000 25.340000 5.210000 20.510000 # H MOL
328 1 2 0.000000 40.230000 31.020000 9.990000 # O MOL
329 1 1 0.000000 39.919998 31.860001 10.320000 # H MOL
330 1 1 0.000000 39.650002 30.370001 10.370000 # H MOL
331 1 2 0.000000 39.110001 38.630001 20.049999 # O MOL
332 1 1 0.000000 38.310001 39.080002 19.760000 # H MOL
333 1 1 0.000000 39.709999 39.340000 20.270000 # H MOL
334 1 2 0.000000 34.860001 34.270000 24.500000 # O MOL
335 1 1 0.000000 35.459999 34.580002 23.820000 # H MOL
336 1 1 0.000000 35.430000 34.070000 25.250000 # H MOL
337 1 2 0.000000 24.309999 15.820000 11.420000 # O MOL
338 1 1 0.000000 25.030001 15.500000 11.960000 # H MOL
339 1 1 0.000000 23.920000 15.020000 11.050000 # H MOL
340 1 2 0.000000 28.500000 21.270000 0.300000 # O MOL
341 1 1 0.000000 28.730000 20.360001 0.110000 # H MOL
342 1 1 0.000000 27.590000 21.240000 0.570000 # H MOL
343 1 2 0.000000 21.340000 -0.110000 10.920000 # O MOL
344 1 1 0.000000 20.520000 0.330000 11.140000 # H MOL
345 1 1 0.000000 21.459999 0.060000 9.980000 # H MOL
346 1 2 0.000000 19.870001 42.139999 22.889999 # O MOL
347 1 1 0.000000 18.940001 42.340000 22.840000 # H MOL
348 1 1 0.000000 20.049999 42.049999 23.820000 # H MOL
349 1 2 0.000000 33.939999 35.689999 4.190000 # O MOL
350 1 1 0.000000 34.610001 35.330002 4.770000 # H MOL
351 1 1 0.000000 34.320000 36.490002 3.840000 # H MOL
352 1 2 0.000000 41.580002 6.800000 20.559999 # O MOL
353 1 1 0.000000 41.160000 7.360000 21.219999 # H MOL
354 1 1 0.000000 41.200001 7.090000 19.730000 # H MOL
355 1 2 0.000000 42.500000 43.990002 9.930000 # O MOL
356 1 1 0.000000 41.669998 43.630001 10.250000 # H MOL
357 1 1 0.000000 42.419998 44.930000 10.070000 # H MOL
358 1 2 0.000000 6.330000 28.610001 17.480000 # O MOL
359 1 1 0.000000 6.220000 27.799999 16.980000 # H MOL
360 1 1 0.000000 6.300000 29.309999 16.820000 # H MOL
361 1 2 0.000000 42.320000 10.460000 20.120001 # O MOL
362 1 1 0.000000 42.990002 9.770000 20.160000 # H MOL
363 1 1 0.000000 41.529999 10.010000 19.799999 # H MOL
364 1 2 0.000000 45.380001 24.780001 0.510000 # O MOL
365 1 1 0.000000 44.889999 24.290001 -0.140000 # H MOL
366 1 1 0.000000 45.799999 24.110001 1.050000 # H MOL
367 1 2 0.000000 25.290001 24.690001 10.500000 # O MOL
368 1 1 0.000000 25.580000 24.879999 9.610000 # H MOL
369 1 1 0.000000 26.080000 24.750000 11.030000 # H MOL
370 1 2 0.000000 22.100000 4.220000 5.670000 # O MOL
371 1 1 0.000000 21.290001 3.730000 5.760000 # H MOL
372 1 1 0.000000 22.320000 4.480000 6.560000 # H MOL
373 1 2 0.000000 35.360001 0.070000 23.209999 # O MOL
374 1 1 0.000000 36.150002 0.260000 22.709999 # H MOL
375 1 1 0.000000 35.250000 -0.880000 23.129999 # H MOL
376 1 2 0.000000 22.580000 33.849998 18.030001 # O MOL
377 1 1 0.000000 22.299999 34.290001 17.219999 # H MOL
378 1 1 0.000000 22.000000 33.080002 18.090000 # H MOL
379 1 2 0.000000 29.620001 27.450001 21.840000 # O MOL
380 1 1 0.000000 30.120001 26.660000 22.049999 # H MOL
381 1 1 0.000000 29.000000 27.530001 22.559999 # H MOL
382 1 2 0.000000 0.260000 13.610000 9.180000 # O MOL
383 1 1 0.000000 0.830000 13.430000 8.430000 # H MOL
384 1 1 0.000000 0.650000 13.130000 9.900000 # H MOL
385 1 2 0.000000 9.540000 43.570000 23.020000 # O MOL
386 1 1 0.000000 10.140000 43.029999 23.540001 # H MOL
387 1 1 0.000000 9.040000 42.939999 22.500000 # H MOL
388 1 2 0.000000 45.770000 37.389999 5.650000 # O MOL
389 1 1 0.000000 46.049999 38.150002 5.150000 # H MOL
390 1 1 0.000000 46.540001 36.830002 5.680000 # H MOL
391 1 2 0.000000 19.049999 6.890000 13.760000 # O MOL
392 1 1 0.000000 19.200001 7.820000 13.570000 # H MOL
393 1 1 0.000000 18.139999 6.740000 13.520000 # H MOL
394 1 2 0.000000 12.990000 30.270000 6.390000 # O MOL
395 1 1 0.000000 13.790000 30.580000 6.820000 # H MOL
396 1 1 0.000000 12.860000 30.870001 5.660000 # H MOL
397 1 2 0.000000 34.349998 10.160000 13.660000 # O MOL
398 1 1 0.000000 33.669998 10.490000 14.250000 # H MOL
399 1 1 0.000000 34.029999 9.300000 13.390000 # H MOL
400 1 2 0.000000 30.139999 1.650000 9.800000 # O MOL
401 1 1 0.000000 29.850000 1.040000 10.480000 # H MOL
402 1 1 0.000000 30.170000 1.120000 9.000000 # H MOL
403 1 2 0.000000 44.380001 5.850000 1.050000 # O MOL
404 1 1 0.000000 44.410000 5.820000 2.000000 # H MOL
405 1 1 0.000000 44.150002 6.750000 0.830000 # H MOL
406 1 2 0.000000 36.730000 11.610000 17.639999 # O MOL
407 1 1 0.000000 35.869999 11.960000 17.879999 # H MOL
408 1 1 0.000000 37.139999 12.320000 17.139999 # H MOL
409 1 2 0.000000 38.470001 17.510000 6.240000 # O MOL
410 1 1 0.000000 38.970001 17.709999 5.450000 # H MOL
411 1 1 0.000000 38.139999 16.620001 6.090000 # H MOL
412 1 2 0.000000 9.270000 25.799999 12.660000 # O MOL
413 1 1 0.000000 10.150000 25.459999 12.830000 # H MOL
414 1 1 0.000000 9.090000 26.370001 13.410000 # H MOL
415 1 2 0.000000 22.770000 16.959999 13.820000 # O MOL
416 1 1 0.000000 23.389999 16.580000 13.190000 # H MOL
417 1 1 0.000000 21.990000 16.420000 13.740000 # H MOL
418 1 2 0.000000 23.889999 23.299999 21.040001 # O MOL
419 1 1 0.000000 24.150000 22.830000 21.830000 # H MOL
420 1 1 0.000000 24.580000 23.110001 20.400000 # H MOL
421 1 2 0.000000 1.230000 3.450000 24.010000 # O MOL
422 1 1 0.000000 1.020000 4.370000 23.870001 # H MOL
423 1 1 0.000000 0.780000 3.230000 24.830000 # H MOL
424 1 2 0.000000 43.029999 23.350000 25.410000 # O MOL
425 1 1 0.000000 43.849998 23.400000 24.920000 # H MOL
426 1 1 0.000000 42.709999 22.459999 25.270000 # H MOL
427 1 2 0.000000 36.820000 25.629999 12.830000 # O MOL
428 1 1 0.000000 37.330002 26.400000 12.580000 # H MOL
429 1 1 0.000000 36.000000 25.719999 12.350000 # H MOL
430 1 2 0.000000 21.530001 30.510000 9.980000 # O MOL
431 1 1 0.000000 22.219999 30.760000 9.360000 # H MOL
432 1 1 0.000000 21.670000 29.570000 10.120000 # H MOL
433 1 2 0.000000 5.610000 4.750000 14.070000 # O MOL
434 1 1 0.000000 6.420000 4.250000 14.010000 # H MOL
435 1 1 0.000000 4.930000 4.080000 14.160000 # H MOL
436 1 2 0.000000 44.070000 8.630000 10.680000 # O MOL
437 1 1 0.000000 43.759998 7.930000 10.110000 # H MOL
438 1 1 0.000000 43.360001 9.270000 10.700000 # H MOL
439 1 2 0.000000 40.279999 27.740000 6.330000 # O MOL
440 1 1 0.000000 40.169998 28.100000 5.450000 # H MOL
441 1 1 0.000000 39.599998 28.150000 6.850000 # H MOL
442 1 2 0.000000 30.600000 17.580000 4.710000 # O MOL
443 1 1 0.000000 29.950001 18.280001 4.780000 # H MOL
444 1 1 0.000000 31.270000 17.809999 5.350000 # H MOL
445 1 2 0.000000 32.169998 10.010000 22.360001 # O MOL
446 1 1 0.000000 31.209999 10.090000 22.389999 # H MOL
447 1 1 0.000000 32.419998 9.860000 23.270000 # H MOL
448 1 2 0.000000 24.920000 41.270000 22.170000 # O MOL
449 1 1 0.000000 25.129999 40.880001 23.020000 # H MOL
450 1 1 0.000000 24.150000 41.810001 22.330000 # H MOL
451 1 2 0.000000 17.930000 8.550000 20.889999 # O MOL
452 1 1 0.000000 18.879999 8.580000 20.799999 # H MOL
453 1 1 0.000000 17.780001 7.920000 21.600000 # H MOL
454 1 2 0.000000 10.960000 10.590000 18.740000 # O MOL
455 1 1 0.000000 11.080000 10.050000 19.520000 # H MOL
456 1 1 0.000000 10.420000 10.060000 18.150000 # H MOL
457 1 2 0.000000 31.070000 32.500000 6.710000 # O MOL
458 1 1 0.000000 31.070000 31.730000 7.280000 # H MOL
459 1 1 0.000000 31.110001 33.240002 7.310000 # H MOL
460 1 2 0.000000 37.610001 44.160000 15.810000 # O MOL
461 1 1 0.000000 37.000000 44.849998 16.059999 # H MOL
462 1 1 0.000000 38.180000 44.580002 15.160000 # H MOL
463 1 2 0.000000 31.590000 7.700000 18.049999 # O MOL
464 1 1 0.000000 31.650000 8.640000 17.840000 # H MOL
465 1 1 0.000000 32.200001 7.280000 17.450001 # H MOL
466 1 2 0.000000 4.350000 32.849998 6.690000 # O MOL
467 1 1 0.000000 4.740000 33.220001 5.900000 # H MOL
468 1 1 0.000000 4.330000 31.910000 6.530000 # H MOL
469 1 2 0.000000 40.049999 35.480000 9.020000 # O MOL
470 1 1 0.000000 40.250000 35.099998 8.170000 # H MOL
471 1 1 0.000000 39.230000 35.950001 8.900000 # H MOL
472 1 2 0.000000 3.850000 43.700001 12.690000 # O MOL
473 1 1 0.000000 3.250000 43.009998 12.420000 # H MOL
474 1 1 0.000000 4.710000 43.400002 12.410000 # H MOL
475 1 2 0.000000 3.570000 6.570000 24.540001 # O MOL
476 1 1 0.000000 2.870000 6.370000 23.910000 # H MOL
477 1 1 0.000000 3.620000 7.520000 24.540001 # H MOL
478 1 2 0.000000 3.720000 43.959999 15.430000 # O MOL
479 1 1 0.000000 4.250000 44.700001 15.730000 # H MOL
480 1 1 0.000000 4.000000 43.820000 14.530000 # H MOL
481 1 2 0.000000 44.939999 17.790001 12.290000 # O MOL
482 1 1 0.000000 45.230000 18.180000 13.120000 # H MOL
483 1 1 0.000000 45.580002 18.110001 11.650000 # H MOL
484 1 2 0.000000 16.370001 0.240000 12.340000 # O MOL
485 1 1 0.000000 17.250000 0.570000 12.160000 # H MOL
486 1 1 0.000000 16.280001 -0.520000 11.760000 # H MOL
487 1 2 0.000000 33.310001 28.570000 18.170000 # O MOL
488 1 1 0.000000 33.750000 28.530001 19.020000 # H MOL
489 1 1 0.000000 33.680000 29.350000 17.750000 # H MOL
490 1 2 0.000000 24.110001 8.010000 15.930000 # O MOL
491 1 1 0.000000 24.129999 8.710000 16.570000 # H MOL
492 1 1 0.000000 23.340000 7.480000 16.170000 # H MOL
493 1 2 0.000000 10.930000 36.830002 25.430000 # O MOL
494 1 1 0.000000 10.740000 37.130001 24.540001 # H MOL
495 1 1 0.000000 11.430000 37.549999 25.830000 # H MOL
496 1 2 0.000000 7.090000 25.450001 3.490000 # O MOL
497 1 1 0.000000 7.140000 25.510000 2.540000 # H MOL
498 1 1 0.000000 7.780000 26.040001 3.810000 # H MOL
499 1 2 0.000000 10.050000 37.540001 22.719999 # O MOL
500 1 1 0.000000 9.140000 37.820000 22.780001 # H MOL
501 1 1 0.000000 10.500000 38.259998 22.270000 # H MOL
502 1 2 0.000000 12.110000 34.259998 8.970000 # O MOL
503 1 1 0.000000 12.630000 34.950001 9.370000 # H MOL
504 1 1 0.000000 11.450000 34.029999 9.630000 # H MOL
505 1 2 0.000000 17.790001 34.869999 19.010000 # O MOL
506 1 1 0.000000 17.889999 34.139999 18.400000 # H MOL
507 1 1 0.000000 17.020000 34.650002 19.520000 # H MOL
508 1 2 0.000000 39.990002 35.970001 13.560000 # O MOL
509 1 1 0.000000 40.299999 36.880001 13.540000 # H MOL
510 1 1 0.000000 40.669998 35.500000 14.050000 # H MOL
511 1 2 0.000000 16.400000 5.960000 13.660000 # O MOL
512 1 1 0.000000 15.940000 6.790000 13.530000 # H MOL
513 1 1 0.000000 16.520000 5.620000 12.780000 # H MOL
514 1 2 0.000000 18.559999 42.799999 26.980000 # O MOL
515 1 1 0.000000 19.389999 42.700001 26.520000 # H MOL
516 1 1 0.000000 18.549999 43.720001 27.250000 # H MOL
517 1 2 0.000000 1.070000 20.760000 9.620000 # O MOL
518 1 1 0.000000 1.260000 19.830000 9.740000 # H MOL
519 1 1 0.000000 1.560000 21.200001 10.310000 # H MOL
520 1 2 0.000000 42.480000 4.960000 12.950000 # O MOL
521 1 1 0.000000 41.689999 4.920000 13.490000 # H MOL
522 1 1 0.000000 42.860001 5.810000 13.140000 # H MOL
523 1 2 0.000000 23.010000 39.419998 6.820000 # O MOL
524 1 1 0.000000 22.889999 39.020000 5.970000 # H MOL
525 1 1 0.000000 23.670000 40.099998 6.680000 # H MOL
526 1 2 0.000000 44.310001 6.750000 19.750000 # O MOL
527 1 1 0.000000 43.410000 6.720000 20.090000 # H MOL
528 1 1 0.000000 44.630001 7.620000 19.990000 # H MOL
529 1 2 0.000000 23.080000 6.120000 3.900000 # O MOL
530 1 1 0.000000 22.809999 5.510000 4.590000 # H MOL
531 1 1 0.000000 22.270000 6.540000 3.620000 # H MOL
532 1 2 0.000000 16.270000 24.969999 1.460000 # O MOL
533 1 1 0.000000 15.480000 24.629999 1.890000 # H MOL
534 1 1 0.000000 16.030001 25.850000 1.180000 # H MOL
535 1 2 0.000000 6.160000 0.700000 23.010000 # O MOL
536 1 1 0.000000 5.950000 1.590000 23.290001 # H MOL
537 1 1 0.000000 6.860000 0.420000 23.600000 # H MOL
538 1 2 0.000000 22.969999 27.780001 20.490000 # O MOL
539 1 1 0.000000 23.420000 27.070000 20.950001 # H MOL
540 1 1 0.000000 23.270000 27.700001 19.580000 # H MOL
541 1 2 0.000000 42.540001 8.240000 -0.030000 # O MOL
542 1 1 0.000000 42.759998 8.300000 -0.960000 # H MOL
543 1 1 0.000000 42.529999 9.150000 0.270000 # H MOL
544 1 2 0.000000 38.889999 27.459999 12.260000 # O MOL
545 1 1 0.000000 39.419998 26.860001 12.780000 # H MOL